
                                 *****************
                                 * O   R   C   A *
                                 *****************

                                            #,                                       
                                            ###                                      
                                            ####                                     
                                            #####                                    
                                            ######                                   
                                           ########,                                 
                                     ,,################,,,,,                         
                               ,,#################################,,                 
                          ,,##########################################,,             
                       ,#########################################, ''#####,          
                    ,#############################################,,   '####,        
                  ,##################################################,,,,####,       
                ,###########''''           ''''###############################       
              ,#####''   ,,,,##########,,,,          '''####'''          '####       
            ,##' ,,,,###########################,,,                        '##       
           ' ,,###''''                  '''############,,,                           
         ,,##''                                '''############,,,,        ,,,,,,###''
      ,#''                                            '''#######################'''  
     '                                                          ''''####''''         
             ,#######,   #######,   ,#######,      ##                                
            ,#'     '#,  ##    ##  ,#'     '#,    #''#        ,####,   ,####,        
            ##       ##  ##   ,#'  ##            #'  '#       #'       #'  '#        
            ##       ##  #######   ##           ,######,      #####,   #    #        
            '#,     ,#'  ##    ##  '#,     ,#' ,#      #,     #,   #   #,  ,#        
             '#######'   ##     ##  '#######'  #'      '#     '####' # '####'        



                #########################################################
                #                        -***-                          #
                #          Department of theory and spectroscopy        #
                #                                                       #
                #                      Frank Neese                      #
                #                                                       #
                #     Directorship, Architecture, Infrastructure        #
                #                    SHARK, DRIVERS                     #
                #        Core code/Algorithms in most modules           #
                #                                                       #
                #        Max Planck Institute fuer Kohlenforschung      #
                #                Kaiser Wilhelm Platz 1                 #
                #                 D-45470 Muelheim/Ruhr                 #
                #                      Germany                          #
                #                                                       #
                #                  All rights reserved                  #
                #                        -***-                          #
                #########################################################


                         Program Version 6.0.0  -   RELEASE   -


 With contributions from (in alphabetic order):
   Daniel Aravena         : Magnetic Suceptibility
   Michael Atanasov       : Ab Initio Ligand Field Theory (pilot matlab implementation)
   Alexander A. Auer      : GIAO ZORA, VPT2 properties, NMR spectrum
   Ute Becker             : All parallelization in ORCA, NUMFREQ, NUMCALC
   Giovanni Bistoni       : ED, misc. LED, open-shell LED, HFLD
   Martin Brehm           : Molecular dynamics
   Dmytro Bykov           : pre 5.0 version of the SCF Hessian
   Marcos Casanova-Páez   : Triplet and SCS-CIS(D). UHF-(DLPNO)-IP/EA/STEOM-CCSD. UHF-CVS-IP/STEOM-CCSD
   Vijay G. Chilkuri      : MRCI spin determinant printing, contributions to CSF-ICE
   Pauline Colinet        : FMM embedding
   Dipayan Datta          : RHF DLPNO-CCSD density
   Achintya Kumar Dutta   : EOM-CC, STEOM-CC
   Nicolas Foglia         : Exact transition moments, OPA infrastructure, MCD improvements
   Dmitry Ganyushin       : Spin-Orbit,Spin-Spin,Magnetic field MRCI
   Miquel Garcia          : C-PCM and meta-GGA Hessian, CCSD/C-PCM, Gaussian charge scheme
   Tiago L. C. Gouveia    : GS-ROHF, GS-ROCIS
   Yang Guo               : DLPNO-NEVPT2, F12-NEVPT2, CIM, IAO-localization
   Andreas Hansen         : Spin unrestricted coupled pair/coupled cluster methods
   Ingolf Harden          : AUTO-CI MPn and infrastructure 
   Benjamin Helmich-Paris : MC-RPA, TRAH-(SCF,CASSCF), AVAS, COSX integrals, SCF dyn. polar.
   Lee Huntington         : MR-EOM, pCC
   Robert Izsak           : Overlap fitted RIJCOSX, COSX-SCS-MP3, EOM
   Riya Kayal             : Wick's Theorem for AUTO-CI, AUTO-CI UHF-CCSDT
   Emily Kempfer          : AUTO-CI, RHF CISDT and CCSDT
   Christian Kollmar      : KDIIS, OOCD, Brueckner-CCSD(T), CCSD density, CASPT2, CASPT2-K, improved NEVPT2
   Axel Koslowski         : Symmetry handling
   Simone Kossmann        : Meta GGA functionals, TD-DFT gradient, OOMP2, (MP2 Hessian; deprecated post 5.0)
   Lucas Lang             : DCDCAS
   Marvin Lechner         : AUTO-CI (C++ implementation), FIC-MRCC
   Spencer Leger          : CASSCF response
   Dagmar Lenk            : GEPOL surface, SMD, ORCA-2-JSON
   Dimitrios Liakos       : Extrapolation schemes; Compound Job, initial MDCI parallelization
   Dimitrios Manganas     : Further ROCIS development; embedding schemes. LFT, Crystal Embedding
   Dimitrios Pantazis     : SARC Basis sets
   Anastasios Papadopoulos: AUTO-CI, single reference methods and gradients
   Taras Petrenko         : pre 6.0 DFT Hessian and TD-DFT gradient, (ASA, deprecated), ECA, 1-Electron XAS/XES, NRVS
   Peter Pinski           : DLPNO-MP2, DLPNO-MP2 Gradient
   Christoph Reimann      : Effective Core Potentials
   Marius Retegan         : Local ZFS, SOC
   Christoph Riplinger    : Optimizer, TS searches, QM/MM, DLPNO-CCSD(T), (RO)-DLPNO pert. Triples
   Michael Roemelt        : Original ROCIS implementation
   Masaaki Saitow         : Open-shell DLPNO-CCSD energy and density
   Barbara Sandhoefer     : DKH picture change effects
   Kantharuban Sivalingam : CASSCF convergence/infrastructure, NEVPT2 and variants, FIC-MRCI
   Bernardo de Souza      : ESD, SOC TD-DFT
   Georgi Stoychev        : AutoAux, RI-MP2 NMR, DLPNO-MP2 response, X2C
   Van Anh Tran           : RI-MP2 g-tensors
   Willem Van den Heuvel  : Paramagnetic NMR
   Zikuan Wang            : NOTCH, Electric field optimization 
   Frank Wennmohs         : Technical directorship and infrastructure
   Hang Xu                : AUTO-CI-Response properties 


 We gratefully acknowledge several colleagues who have allowed us to
 interface, adapt or use parts of their codes:
   Stefan Grimme, W. Hujo, H. Kruse, P. Pracht,  : VdW corrections, initial TS optimization,
                  C. Bannwarth, S. Ehlert,         DFT functionals, gCP, sTDA/sTD-DF
                  L. Wittmann, M. Mueller
   Ed Valeev, F. Pavosevic, A. Kumar             : LibInt (2-el integral package), F12 methods
   Garnet Chan, S. Sharma, J. Yang, R. Olivares  : DMRG
   Ulf Ekstrom                                   : XCFun DFT Library
   Mihaly Kallay                                 : mrcc  (arbitrary order and MRCC methods)
   Frank Weinhold                                : gennbo (NPA and NBO analysis)
   Simon Mueller                                 : openCOSMO-RS
   Christopher J. Cramer and Donald G. Truhlar   : smd solvation model
   Lars Goerigk                                  : TD-DFT with DH, B97 family of functionals
   V. Asgeirsson, H. Jonsson                     : NEB implementation
   FAccTs GmbH                                   : IRC, NEB, NEB-TS, DLPNO-Multilevel, CI-OPT
                                                   MM, QMMM, 2- and 3-layer-ONIOM, Crystal-QMMM,
                                                   LR-CPCM, SF, NACMEs, symmetry and pop. for TD-DFT,
                                                   nearIR, NL-DFT gradient (VV10), updates on ESD,
                                                   ML-optimized integration grids, MBIS, APM,
                                                   GOAT, DOCKER, SOLVATOR, interface openCOSMO-RS
   S Lehtola, MJT Oliveira, MAL Marques          : LibXC Library
   Liviu Ungur et al                             : ANISO software


 Your calculation uses the libint2 library for the computation of 2-el integrals
 For citations please refer to: http://libint.valeyev.net

 Your ORCA version has been built with support for libXC version: 6.2.2
 For citations please refer to: https://libxc.gitlab.io

 This ORCA versions uses:
   CBLAS   interface :  Fast vector & matrix operations
   LAPACKE interface :  Fast linear algebra routines
   Shared memory     :  Shared parallel matrices


Your calculation utilizes the geometrical counterpoise correction gCP
Please cite in your paper:
H.Kruse, S. Grimme J.Chem.Phys., 136, (2012), 154101 
   

Your calculation utilizes the atom-pairwise dispersion correction
with the Becke-Johnson damping scheme (D3BJ)


================================================================================

cite the ECPs for I  [Def-ECP] as follows:
 

ECP parameters for I  [Def-ECP] have been obtained from:
TURBOMOLE (7.0.2)

----- Orbital basis set information -----
Your calculation utilizes the basis: MINIX,
   a combination of small basis sets by S. Grimme (see manual for definitions).

================================================================================
                                        WARNINGS
                       Please study these warnings very carefully!
================================================================================


WARNING: Geometry Optimization
  ===> : Switching off AutoStart
         For restart on a previous wavefunction, please use MOREAD

================================================================================
                                       INPUT FILE
================================================================================
NAME = 4aglTightSmallComplexFragmented_input.txt
|  1> ! HF-3c Opt TightSCF
|  2> 
|  3> %geom
|  4> 	optimizehydrogens true
|  5> end
|  6> 
|  7> *xyz 0 1 
|  8> H(2) 94.053101 95.579651 -47.388393
|  9> H(2) 93.333061 96.482246 -50.216503
| 10> H(2) 91.442993 94.847305 -49.949322
| 11> H(2) 93.050354 94.087502 -50.027538
| 12> H(2) 92.223206 94.262146 -48.460743
| 13> H(2) 94.666161 98.048378 -48.742676
| 14> H(2) 91.951332 97.732941 -49.190563
| 15> H(1) 90.922493 97.134789 -46.54533
| 16> H(1) 92.183914 92.192429 -43.641792
| 17> H(1) 90.888481 94.745415 -46.862087
| 18> H(1) 93.449921 97.771004 -44.707966
| 19> H(1) 92.870781 98.2043 -46.333961
| 20> H(1) 93.082275 99.468002 -45.097897
| 21> H(1) 89.671066 99.350357 -44.392143
| 22> H(1) 91.177132 100.294167 -44.481533
| 23> H(1) 89.652809 97.194633 -45.25256
| 24> H(1) 90.412285 99.69429 -45.973064
| 25> H(1) 92.393906 96.716225 -42.383892
| 26> N(2) 94.934998 97.276001 -48.150002
| 27> C(2) 94.320999 95.968002 -48.370998
| 28> C(2) 95.289001 94.991997 -49.035999
| 29> O(2) 95.830002 95.273003 -50.103001
| 30> C(2) 93.049004 96.089996 -49.240002
| 31> O(2) 92.116997 96.985001 -48.612
| 32> C(2) 92.394997 94.723999 -49.432999
| 33> C(1) 91.150002 95.734001 -44.952999
| 34> C(1) 91.511002 95.542999 -43.613998
| 35> C(1) 91.883003 94.282997 -43.152
| 36> C(1) 90.714996 97.095001 -45.476002
| 37> N(1) 91.397003 98.231003 -44.827
| 38> C(1) 91.896004 93.176003 -44.013
| 39> C(1) 91.167 94.617996 -45.816002
| 40> C(1) 92.791 98.431999 -45.271
| 41> C(1) 91.536003 93.348 -45.351002
| 42> I(1) 92.385002 94.073997 -41.117001
| 43> O(1) 91.524002 96.626999 -42.779999
| 44> I(1) 91.536003 91.734001 -46.681999
| 45> C(1) 90.613998 99.473 -44.924999
| 46> **                         ****END OF INPUT****
================================================================================

                       *****************************
                       * Geometry Optimization Run *
                       *****************************

Geometry optimization settings:
Update method            Update   .... BFGS
Choice of coordinates    CoordSys .... (2022) Redundant Internals
Initial Hessian          InHess   .... Almloef's Model
Max. no of cycles        MaxIter  .... 161

Convergence Tolerances:
Energy Change            TolE     ....  5.0000e-06 Eh
Max. Gradient            TolMAXG  ....  3.0000e-04 Eh/bohr
RMS Gradient             TolRMSG  ....  1.0000e-04 Eh/bohr
Max. Displacement        TolMAXD  ....  4.0000e-03 bohr
RMS Displacement         TolRMSD  ....  2.0000e-03 bohr
Strict Convergence                .... False

------------------------------------------------------------------------------
                        ORCA OPTIMIZATION COORDINATE SETUP
------------------------------------------------------------------------------

The optimization will be done in redundant internal coordinates (2022)
Making redundant internal coordinates   ...  (2022 redundants) done
Evaluating the initial hessian          ...  (Almloef) done
Evaluating the coordinates              ...  done
Calculating the B-matrix                .... done
Calculating the G-matrix                .... done
Diagonalizing the G-matrix              .... done
The first mode is                       ....  294
The number of degrees of freedom        ....  108
Storing new coordinates                 .... done

    -----------------------------------------------------------------
                    Redundant Internal Coordinates


    -----------------------------------------------------------------
         Definition                    Initial Value    Approx d2E/dq
    -----------------------------------------------------------------
      1. B(N  18,H   5)                  1.0100         0.432706   
      2. B(C  19,H   0)                  1.0900         0.360101   
      3. B(C  19,N  18)                  1.4617         0.429945 C 
      4. B(C  20,C  19)                  1.5270         0.377664 C 
      5. B(O  21,C  20)                  1.2289         1.011431 C 
      6. B(C  22,H   1)                  1.0900         0.360098   
      7. B(C  22,C  19)                  1.5453         0.353127 C 
      8. B(O  23,H   6)                  0.9600         0.519962   
      9. B(O  23,C  22)                  1.4367         0.471407 C 
     10. B(C  24,H   4)                  1.0900         0.360099   
     11. B(C  24,H   2)                  1.0900         0.360097   
     12. B(C  24,H   3)                  1.0900         0.360101   
     13. B(C  24,C  22)                  1.5267         0.378082 C 
     14. B(C  25,O  23)                  3.9860         0.000040 C 
     15. B(C  26,C  25)                  1.3999         0.602476 C 
     16. B(C  27,C  26)                  1.3926         0.618778 C 
     17. B(C  28,H   7)                  1.0900         0.360100   
     18. B(C  28,H  15)                  1.0900         0.360104   
     19. B(C  28,C  25)                  1.5215         0.385368 C 
     20. B(C  28,O  23)                  3.4369         0.000304 C 
     21. B(N  29,O  23)                  4.0493         0.000029 C 
     22. B(N  29,C  28)                  1.4754         0.408891 C 
     23. B(C  30,H   8)                  1.0900         0.360097   
     24. B(C  30,C  27)                  1.4025         0.596817 C 
     25. B(C  31,C  25)                  1.4109         0.578702 C 
     26. B(C  31,O  23)                  3.7845         0.000085 C 
     27. B(C  31,C  24)                  3.8212         0.000083 C 
     28. B(C  31,H   9)                  1.0900         0.360099   
     29. B(C  31,C  22)                  4.1752         0.000022 C 
     30. B(C  31,C  19)                  4.2776         0.000015 C 
     31. B(C  32,N  29)                  1.4767         0.406899 C 
     32. B(C  32,O  23)                  3.7028         0.000114 C 
     33. B(C  32,N  18)                  3.7712         0.000089 C 
     34. B(C  32,C  19)                  4.2453         0.000017 C 
     35. B(C  32,H  10)                  1.0900         0.360101   
     36. B(C  32,H  11)                  1.0900         0.360101   
     37. B(C  32,H  12)                  1.0900         0.360095   
     38. B(C  33,C  24)                  4.3925         0.000010 C 
     39. B(C  33,C  30)                  1.3962         0.610680 C 
     40. B(C  33,C  31)                  1.4019         0.598107 C 
     41. B(I  34,C  27)                  2.1064         0.151101 C 
     42. B(O  35,C  26)                  1.3678         0.607227 C 
     43. B(O  35,H  17)                  0.9600         0.519961   
     44. B(I  36,C  33)                  2.0920         0.159296 C 
     45. B(I  36,C  24)                  4.1528         0.000082 C 
     46. B(C  37,H  13)                  1.0900         0.360101   
     47. B(C  37,H  14)                  1.0900         0.360102   
     48. B(C  37,H  16)                  1.0900         0.360101   
     49. B(C  37,N  29)                  1.4715         0.414837 C 
     50. A(C  19,N  18,C  32)           98.6796         0.131151 C 
     51. A(H   5,N  18,C  19)          118.9321         0.337226   
     52. A(H   0,C  19,C  22)          109.4363         0.321340   
     53. A(H   0,C  19,C  20)          108.7028         0.324900   
     54. A(N  18,C  19,C  22)          111.1081         0.366332 C 
     55. A(N  18,C  19,C  20)          111.8077         0.370581 C 
     56. A(C  20,C  19,C  32)          156.5540         0.117766 C 
     57. A(N  18,C  19,C  32)           61.4203         0.118379 C 
     58. A(C  22,C  19,C  31)           75.7525         0.116579 C 
     59. A(C  20,C  19,C  22)          109.1081         0.360547 C 
     60. A(C  31,C  19,C  32)           58.7539         0.091922 C 
     61. A(N  18,C  19,C  31)          120.1197         0.117598 C 
     62. A(H   0,C  19,N  18)          106.6042         0.329926   
     63. A(C  22,C  19,C  32)           93.9085         0.117332 C 
     64. A(C  20,C  19,C  31)          121.7216         0.117002 C 
     65. A(C  19,C  20,O  21)          120.7330         0.430738 C 
     66. A(O  23,C  22,C  24)          109.5569         0.376582 C 
     67. A(H   1,C  22,O  23)          109.6625         0.334998   
     68. A(H   1,C  22,C  24)          108.6847         0.324958   
     69. A(C  19,C  22,C  24)          110.6744         0.360615 C 
     70. A(H   1,C  22,C  19)          108.5232         0.321340   
     71. A(O  23,C  22,C  31)           64.4528         0.120796 C 
     72. A(C  24,C  22,C  31)           66.1176         0.119498 C 
     73. A(C  19,C  22,O  23)          109.7153         0.372172 C 
     74. A(C  19,C  22,C  31)           83.2251         0.119031 C 
     75. A(C  22,O  23,C  28)          133.1115         0.145829 C 
     76. A(C  31,O  23,C  32)           67.8825         0.095467 C 
     77. A(C  22,O  23,N  29)          135.6941         0.122031 C 
     78. A(C  25,O  23,C  32)           48.5881         0.094470 C 
     79. A(C  28,O  23,N  29)           20.7284         0.095261 C 
     80. A(C  25,O  23,C  28)           22.1027         0.095823 C 
     81. A(C  22,O  23,C  32)          121.3173         0.134558 C 
     82. A(C  28,O  23,C  32)           40.3979         0.097635 C 
     83. A(H   6,O  23,C  22)          109.5036         0.353213   
     84. A(C  28,O  23,C  31)           40.8439         0.097068 C 
     85. A(C  25,O  23,N  29)           36.4286         0.092966 C 
     86. A(C  25,O  23,C  31)           20.7121         0.094110 C 
     87. A(C  22,O  23,C  31)           95.5178         0.131563 C 
     88. A(C  22,O  23,C  25)          111.2919         0.124998 C 
     89. A(N  29,O  23,C  31)           57.1292         0.093689 C 
     90. A(N  29,O  23,C  32)           21.3643         0.094019 C 
     91. A(H   2,C  24,H   4)          109.4389         0.290839   
     92. A(C  22,C  24,C  33)          104.2750         0.114458 C 
     93. A(C  31,C  24,I  36)           44.4814         0.095582 C 
     94. A(C  22,C  24,C  31)           92.4545         0.129936 C 
     95. A(H   2,C  24,C  22)          109.4389         0.324958   
     96. A(H   2,C  24,H   3)          109.4394         0.290839   
     97. A(H   3,C  24,C  22)          109.5032         0.324959   
     98. A(C  22,C  24,I  36)          130.4704         0.133355 C 
     99. A(H   4,C  24,C  22)          109.5036         0.324958   
    100. A(C  33,C  24,I  36)           28.1626         0.093094 C 
    101. A(H   3,C  24,H   4)          109.5033         0.290839   
    102. A(C  31,C  24,C  33)           17.9776         0.092778 C 
    103. A(C  28,C  25,C  31)          120.0488         0.394059 C 
    104. A(O  23,C  25,C  26)          149.1245         0.127369 C 
    105. A(O  23,C  25,C  28)           58.2033         0.123678 C 
    106. A(C  26,C  25,C  28)          121.6379         0.396852 C 
    107. A(C  26,C  25,C  31)          118.2970         0.426527 C 
    108. A(O  23,C  25,C  31)           71.5686         0.127021 C 
    109. A(C  25,C  26,C  27)          120.6399         0.431681 C 
    110. A(C  25,C  26,O  35)          118.5252         0.427415 C 
    111. A(C  27,C  26,O  35)          120.8127         0.429466 C 
    112. A(C  26,C  27,C  30)          120.8610         0.430950 C 
    113. A(C  26,C  27,I  34)          118.2898         0.360863 C 
    114. A(C  30,C  27,I  34)          120.8359         0.358649 C 
    115. A(O  23,C  28,N  29)          103.7360         0.144028 C 
    116. A(C  25,C  28,N  29)          113.9137         0.368675 C 
    117. A(H   7,C  28,H  15)          112.5368         0.290840   
    118. A(H   7,C  28,C  25)          108.3874         0.325980   
    119. A(H  15,C  28,C  25)          106.8521         0.325981   
    120. A(H   7,C  28,N  29)          108.3871         0.327203   
    121. A(H  15,C  28,N  29)          106.8522         0.327204   
    122. A(O  23,C  28,C  25)           99.6940         0.143746 C 
    123. A(C  28,N  29,C  32)          114.1352         0.369808 C 
    124. A(O  23,N  29,C  28)           55.5357         0.120984 C 
    125. A(O  23,N  29,C  32)           65.9837         0.120949 C 
    126. A(O  23,N  29,C  37)          106.9825         0.121089 C 
    127. A(C  28,N  29,C  37)          112.0003         0.371038 C 
    128. A(C  32,N  29,C  37)          111.5554         0.370727 C 
    129. A(H   8,C  30,C  33)          120.3726         0.352005   
    130. A(C  27,C  30,C  33)          119.2547         0.429932 C 
    131. A(H   8,C  30,C  27)          120.3727         0.350642   
    132. A(H   9,C  31,C  25)          119.4389         0.348823   
    133. A(O  23,C  31,C  25)           87.7193         0.133955 C 
    134. A(O  23,C  31,C  33)          138.2090         0.134291 C 
    135. A(C  24,C  31,C  25)          124.1194         0.134076 C 
    136. A(O  23,C  31,C  24)           37.1248         0.095059 C 
    137. A(H   9,C  31,C  33)          119.4386         0.350770   
    138. A(C  25,C  31,C  33)          121.1225         0.425971 C 
    139. A(C  22,C  31,C  25)          103.1902         0.122583 C 
    140. A(C  22,C  31,C  33)          118.2134         0.122835 C 
    141. A(C  22,C  31,O  23)           20.0294         0.093514 C 
    142. A(C  22,C  31,C  24)           21.4279         0.093526 C 
    143. A(C  24,C  31,C  33)          104.7445         0.134414 C 
    144. A(C  19,C  31,C  25)           97.1575         0.119842 C 
    145. A(C  19,C  31,C  33)          106.8548         0.120073 C 
    146. A(C  19,C  31,O  23)           34.5388         0.093145 C 
    147. A(C  19,C  31,C  24)           35.7997         0.093157 C 
    148. A(C  19,C  31,C  22)           21.0224         0.092097 C 
    149. A(N  18,C  32,N  29)          136.4256         0.130629 C 
    150. A(H  10,C  32,H  11)          109.4392         0.290840   
    151. A(N  18,C  32,O  23)           45.1589         0.095540 C 
    152. A(H  10,C  32,H  12)          109.4389         0.290839   
    153. A(H  11,C  32,H  12)          109.5032         0.290839   
    154. A(H  10,C  32,N  29)          109.4388         0.326940   
    155. A(H  11,C  32,N  29)          109.5035         0.326940   
    156. A(H  12,C  32,N  29)          109.5037         0.326939   
    157. A(C  19,C  32,N  29)          118.7351         0.118015 C 
    158. A(C  19,C  32,O  23)           34.9050         0.093558 C 
    159. A(O  23,C  32,N  29)           92.6520         0.133066 C 
    160. A(N  18,C  32,C  19)           19.9001         0.093306 C 
    161. A(C  30,C  33,C  31)          119.8237         0.430098 C 
    162. A(C  30,C  33,I  36)          120.9746         0.363313 C 
    163. A(C  31,C  33,I  36)          119.2018         0.362025 C 
    164. A(C  24,C  33,I  36)           69.5389         0.111713 C 
    165. A(C  24,C  33,C  30)          151.4896         0.117376 C 
    166. A(C  24,C  33,C  31)           57.2779         0.117243 C 
    167. A(H  17,O  35,C  26)          109.5036         0.368795   
    168. A(C  24,I  36,C  33)           82.2984         0.128573 C 
    169. A(H  13,C  37,H  14)          109.4391         0.290840   
    170. A(H  13,C  37,H  16)          109.4392         0.290840   
    171. A(H  14,C  37,H  16)          109.5031         0.290840   
    172. A(H  13,C  37,N  29)          109.4387         0.327983   
    173. A(H  14,C  37,N  29)          109.5036         0.327983   
    174. A(H  16,C  37,N  29)          109.5036         0.327983   
    175. D(H   0,C  19,N  18,H   5)   -135.4597         0.017956   
    176. D(C  22,C  19,N  18,C  32)     82.6986         0.017956 C 
    177. D(C  20,C  19,N  18,H   5)    105.8733         0.017956   
    178. D(H   0,C  19,N  18,C  32)    -36.4663         0.017956   
    179. D(C  22,C  19,N  18,H   5)    -16.2948         0.017956   
    180. D(C  20,C  19,N  18,C  32)   -155.1334         0.017956 C 
    181. D(C  32,C  19,N  18,H   5)    -98.9934         0.017956   
    182. D(O  21,C  20,C  19,H   0)   -173.2523         0.011375   
    183. D(O  21,C  20,C  19,N  18)    -55.8393         0.011375 C 
    184. D(O  21,C  20,C  19,C  22)     67.4677         0.011375 C 
    185. D(O  21,C  20,C  19,C  32)   -123.9771         0.011375 C 
    186. D(O  21,C  20,C  19,C  31)    152.1857         0.011375 C 
    187. D(O  23,C  22,C  19,C  32)      3.3676         0.011731 C 
    188. D(H   1,C  22,C  19,C  20)    -61.3678         0.011731   
    189. D(O  23,C  22,C  19,N  18)    -57.4489         0.011731 C 
    190. D(H   1,C  22,C  19,H   0)    179.8088         0.011731   
    191. D(H   1,C  22,C  19,C  31)    179.5449         0.011731   
    192. D(H   1,C  22,C  19,C  32)    123.1710         0.011731   
    193. D(O  23,C  22,C  19,C  20)    178.8288         0.011731 C 
    194. D(H   1,C  22,C  19,N  18)     62.3545         0.011731   
    195. D(O  23,C  22,C  19,H   0)     60.0054         0.011731   
    196. D(H   6,O  23,C  22,C  19)    118.9726         0.025280   
    197. D(C  28,O  23,C  22,C  31)     18.0758         0.025280 C 
    198. D(C  32,O  23,C  22,H   1)   -123.6161         0.025280   
    199. D(H   6,O  23,C  22,C  31)   -169.0977         0.025280   
    200. D(C  32,O  23,C  22,C  19)     -4.5110         0.025280 C 
    201. D(C  28,O  23,C  22,H   1)   -172.9589         0.025280   
    202. D(C  28,O  23,C  22,C  19)    -53.8539         0.025280 C 
    203. D(H   6,O  23,C  22,C  24)   -119.3388         0.025280   
    204. D(C  28,O  23,C  22,C  24)     67.8348         0.025280 C 
    205. D(H   6,O  23,C  22,H   1)     -0.1324         0.025280   
    206. D(H   2,C  24,C  22,H   1)    -67.3450         0.013973   
    207. D(H   3,C  24,C  22,C  19)    -66.4663         0.013973   
    208. D(H   3,C  24,C  22,H   1)     52.6159         0.013973   
    209. D(H   3,C  24,C  22,O  23)    172.4230         0.013973   
    210. D(H   2,C  24,C  22,C  19)    173.5728         0.013973   
    211. D(H   4,C  24,C  22,H   1)    172.6947         0.013973   
    212. D(H   2,C  24,C  22,O  23)     52.4622         0.013973   
    213. D(H   3,C  24,C  22,C  31)   -138.7094         0.013973   
    214. D(H   2,C  24,C  22,C  31)    101.3297         0.013973   
    215. D(H   4,C  24,C  22,C  19)     53.6125         0.013973   
    216. D(C  26,C  25,O  23,C  31)    114.6018         0.001500 C 
    217. D(C  26,C  25,O  23,C  22)     72.2408         0.001500 C 
    218. D(C  26,C  25,O  23,H   6)   -103.5105         0.001500   
    219. D(C  26,C  25,O  23,C  32)    -41.3439         0.001500 C 
    220. D(C  26,C  25,O  23,N  29)    -67.6969         0.001500 C 
    221. D(C  28,C  25,O  23,C  32)     58.1995         0.001500 C 
    222. D(C  28,C  25,O  23,H   6)     -3.9670         0.001500   
    223. D(C  28,C  25,O  23,C  22)    171.7842         0.001500 C 
    224. D(C  26,C  25,O  23,C  28)    -99.5434         0.001500 C 
    225. D(C  27,C  26,C  25,C  31)      0.3123         0.027195 C 
    226. D(C  27,C  26,C  25,O  23)   -101.2667         0.027195 C 
    227. D(O  35,C  26,C  25,C  31)    178.6109         0.027195 C 
    228. D(C  27,C  26,C  25,C  28)    178.8434         0.027195 C 
    229. D(O  35,C  26,C  25,C  28)     -2.8581         0.027195 C 
    230. D(C  30,C  27,C  26,C  25)     -0.4407         0.026488 C 
    231. D(C  30,C  27,C  26,O  35)   -178.7001         0.026488 C 
    232. D(I  34,C  27,C  26,C  25)   -179.1225         0.026488 C 
    233. D(I  34,C  27,C  26,O  35)      2.6181         0.026488 C 
    234. D(H   7,C  28,O  23,H   6)     46.4434         0.001500   
    235. D(H   7,C  28,O  23,C  31)   -112.9716         0.001500   
    236. D(H   7,C  28,O  23,C  22)   -141.1507         0.001500   
    237. D(H   7,C  28,O  23,C  32)    128.9329         0.001500   
    238. D(H   7,C  28,O  23,C  25)   -130.6418         0.001500   
    239. D(H  15,C  28,O  23,C  22)   -129.6821         0.001500   
    240. D(H  15,C  28,O  23,H   6)     57.9119         0.001500   
    241. D(H  15,C  28,C  25,C  26)    -84.0563         0.012536   
    242. D(H  15,C  28,O  23,C  32)    140.4014         0.001500   
    243. D(H  15,C  28,O  23,C  31)   -101.5030         0.001500   
    244. D(H   7,C  28,C  25,C  26)    154.4295         0.012536   
    245. D(H  15,C  28,C  25,O  23)    132.4145         0.012536   
    246. D(H   7,C  28,C  25,C  31)    -27.0648         0.012536   
    247. D(H   7,C  28,O  23,N  29)    111.6418         0.001500   
    248. D(H  15,C  28,C  25,C  31)     94.4495         0.012536   
    249. D(H   7,C  28,C  25,O  23)     10.9003         0.012536   
    250. D(N  29,C  28,C  25,C  26)     33.6977         0.012536 C 
    251. D(C  32,N  29,O  23,C  22)     54.8026         0.001500 C 
    252. D(C  37,N  29,C  28,H  15)    -38.8941         0.016230   
    253. D(C  32,N  29,O  23,C  28)    148.0775         0.001500 C 
    254. D(C  28,N  29,O  23,C  25)    -34.1206         0.001500 C 
    255. D(C  37,N  29,C  28,H   7)     82.6201         0.016230   
    256. D(C  32,N  29,C  28,O  23)    -31.9556         0.016230 C 
    257. D(C  32,N  29,C  28,H   7)    -45.3494         0.016230   
    258. D(C  32,N  29,O  23,H   6)    -89.6634         0.001500   
    259. D(C  28,N  29,O  23,C  31)    -33.1528         0.001500 C 
    260. D(C  32,N  29,O  23,C  31)    114.9247         0.001500 C 
    261. D(C  28,N  29,O  23,C  22)    -93.2749         0.001500 C 
    262. D(C  32,N  29,C  28,H  15)   -166.8635         0.016230   
    263. D(C  32,N  29,C  28,C  25)     75.3826         0.016230 C 
    264. D(C  37,N  29,C  28,C  25)   -156.6480         0.016230 C 
    265. D(C  28,N  29,O  23,C  32)   -148.0775         0.001500 C 
    266. D(C  28,N  29,O  23,H   6)    122.2590         0.001500   
    267. D(C  33,C  30,C  27,C  26)      0.2954         0.024541 C 
    268. D(H   8,C  30,C  27,I  34)     -1.0563         0.024541   
    269. D(C  33,C  30,C  27,I  34)    178.9435         0.024541 C 
    270. D(H   8,C  30,C  27,C  26)   -179.7044         0.024541   
    271. D(C  25,C  31,O  23,C  32)     19.2670         0.001500 C 
    272. D(C  25,C  31,C  19,C  22)   -108.3199         0.001500 C 
    273. D(H   9,C  31,C  19,N  18)    117.2774         0.001500   
    274. D(H   9,C  31,O  23,N  29)    136.7724         0.001500   
    275. D(H   9,C  31,C  19,C  22)     10.8831         0.001500   
    276. D(C  25,C  31,C  19,N  18)     -1.9256         0.001500 C 
    277. D(H   9,C  31,O  23,C  22)    -80.7067         0.001500   
    278. D(C  25,C  31,C  19,H   0)     72.1288         0.001500   
    279. D(C  25,C  31,C  19,C  20)    147.7878         0.001500 C 
    280. D(C  25,C  31,C  19,C  32)     -4.6507         0.001500 C 
    281. D(C  33,C  31,C  19,H   0)    -53.4876         0.001500   
    282. D(H   9,C  31,C  22,H   1)     16.2521         0.001500   
    283. D(H   9,C  31,C  22,C  19)   -165.8665         0.001500   
    284. D(H   9,C  31,C  22,O  23)     78.4553         0.001500   
    285. D(H   9,C  31,C  22,C  24)    -49.6712         0.001500   
    286. D(C  25,C  31,C  22,H   1)   -102.5422         0.001500   
    287. D(C  25,C  31,C  22,C  19)     75.3393         0.001500 C 
    288. D(C  25,C  31,C  22,O  23)    -40.3390         0.001500 C 
    289. D(C  25,C  31,C  22,C  24)   -168.4654         0.001500 C 
    290. D(C  33,C  31,C  22,C  19)    -61.3953         0.001500 C 
    291. D(H   9,C  31,O  23,C  28)    119.5572         0.001500   
    292. D(H   9,C  31,C  19,C  32)    114.5523         0.001500   
    293. D(H   9,C  31,O  23,C  32)    157.6644         0.001500   
    294. D(H   9,C  31,O  23,H   6)     76.3576         0.001500   
    295. D(H   9,C  31,O  23,C  25)    138.3974         0.001500   
    296. D(H   9,C  31,C  19,C  20)    -93.0092         0.001500   
    297. D(C  25,C  31,O  23,H   6)    -62.0398         0.001500   
    298. D(C  25,C  31,O  23,C  22)    140.8959         0.001500 C 
    299. D(C  33,C  31,C  22,H   1)    120.7232         0.001500   
    300. D(H   9,C  31,C  19,H   0)   -168.6682         0.001500   
    301. D(C  25,C  31,O  23,C  28)    -18.8402         0.001500 C 
    302. D(C  25,C  31,O  23,N  29)     -1.6250         0.001500 C 
    303. D(C  33,C  31,O  23,H   6)    160.9351         0.001500   
    304. D(H   9,C  31,C  24,H   2)     -3.3644         0.001500   
    305. D(H   9,C  31,C  24,H   3)   -132.8235         0.001500   
    306. D(H   9,C  31,C  24,H   4)   -118.7115         0.001500   
    307. D(H   9,C  31,C  24,C  22)    106.8484         0.001500   
    308. D(H   9,C  31,C  24,I  36)   -101.0807         0.001500   
    309. D(H   9,C  31,C  25,C  28)      1.3940         0.031878   
    310. D(C  25,C  31,C  24,H   2)    -96.6117         0.001500   
    311. D(C  25,C  31,C  24,H   3)    133.9292         0.001500   
    312. D(C  25,C  31,C  24,H   4)    148.0412         0.001500   
    313. D(C  25,C  31,C  24,C  22)     13.6012         0.001500 C 
    314. D(C  25,C  31,C  24,I  36)    165.6720         0.001500 C 
    315. D(C  25,C  31,C  24,C  33)    145.4781         0.001500 C 
    316. D(H   9,C  31,C  24,C  33)   -121.2747         0.001500   
    317. D(H   9,C  31,C  25,C  26)    179.9492         0.031878   
    318. D(H   9,C  31,C  25,O  23)    -32.0504         0.031878   
    319. D(C  33,C  31,C  25,C  26)     -0.0506         0.031878 C 
    320. D(C  33,C  31,C  25,C  28)   -178.6058         0.031878 C 
    321. D(C  33,C  31,C  25,O  23)    147.9498         0.031878 C 
    322. D(O  23,C  31,C  25,C  26)   -148.0004         0.031878 C 
    323. D(O  23,C  31,C  25,C  28)     33.4444         0.031878 C 
    324. D(C  24,C  31,C  25,C  26)   -140.2433         0.031878 C 
    325. D(H  10,C  32,N  18,H   5)   -161.2079         0.001500   
    326. D(H  10,C  32,N  18,C  19)     78.8022         0.001500   
    327. D(H  11,C  32,N  18,H   5)     49.6730         0.001500   
    328. D(H  11,C  32,N  29,O  23)      7.8517         0.017838   
    329. D(H  12,C  32,N  18,H   5)    -53.0845         0.001500   
    330. D(H  12,C  32,N  18,C  19)   -173.0744         0.001500   
    331. D(H  10,C  32,N  29,C  37)    148.2315         0.017838   
    332. D(N  29,C  32,N  18,C  19)    -31.3088         0.001500 C 
    333. D(H  10,C  32,C  19,H   0)     39.5084         0.001500   
    334. D(H  10,C  32,C  19,N  18)    -97.9015         0.001500   
    335. D(H  10,C  32,C  19,C  20)    -19.0219         0.001500   
    336. D(H  10,C  32,C  19,C  22)    150.1462         0.001500   
    337. D(H  10,C  32,C  19,C  31)     79.4143         0.001500   
    338. D(H  10,C  32,O  23,N  29)    111.7676         0.001500   
    339. D(H  11,C  32,C  19,N  18)     76.1103         0.001500   
    340. D(H  11,C  32,C  19,C  20)    154.9900         0.001500   
    341. D(H  11,C  32,C  19,C  22)    -35.8420         0.001500   
    342. D(H  11,C  32,C  19,C  31)   -106.5739         0.001500   
    343. D(H  12,C  32,C  19,H   0)    145.5642         0.001500   
    344. D(H  10,C  32,O  23,H   6)   -151.5550         0.001500   
    345. D(H  10,C  32,O  23,C  22)    -26.3095         0.001500   
    346. D(H  10,C  32,O  23,C  28)     94.9830         0.001500   
    347. D(H  10,C  32,O  23,C  31)     56.4649         0.001500   
    348. D(H  11,C  32,C  19,H   0)   -146.4798         0.001500   
    349. D(H  10,C  32,O  23,C  25)     65.4169         0.001500   
    350. D(H  11,C  32,O  23,H   6)    -59.4016         0.001500   
    351. D(H  11,C  32,O  23,C  22)     65.8439         0.001500   
    352. D(H  11,C  32,O  23,C  28)   -172.8636         0.001500   
    353. D(H  11,C  32,O  23,C  31)    148.6183         0.001500   
    354. D(H  11,C  32,O  23,C  25)    157.5703         0.001500   
    355. D(H  11,C  32,O  23,N  29)   -156.0791         0.001500   
    356. D(N  29,C  32,N  18,H   5)     88.6811         0.001500   
    357. D(H  10,C  32,N  29,C  28)    -83.5723         0.017838   
    358. D(H  10,C  32,N  29,O  23)   -112.1090         0.017838   
    359. D(H  11,C  32,N  29,C  28)     36.3883         0.017838   
    360. D(H  11,C  32,N  18,C  19)    -70.3169         0.001500   
    361. D(H  11,C  32,N  29,C  37)    -91.8079         0.017838   
    362. D(H  12,C  32,N  29,C  28)    156.4673         0.017838   
    363. D(H  12,C  32,N  29,C  37)     28.2710         0.017838   
    364. D(H  12,C  32,N  29,O  23)    127.9306         0.017838   
    365. D(C  30,C  33,C  24,H   2)   -159.2795         0.001500   
    366. D(C  30,C  33,C  24,H   3)     77.5604         0.001500   
    367. D(C  30,C  33,C  24,H   4)     95.6790         0.001500   
    368. D(C  30,C  33,C  24,C  22)    -43.0477         0.001500 C 
    369. D(C  30,C  33,C  24,C  31)    -93.1864         0.001500 C 
    370. D(C  30,C  33,C  24,I  36)    117.6420         0.001500 C 
    371. D(C  30,C  33,C  31,O  23)    127.1946         0.034208 C 
    372. D(C  31,C  33,C  24,H   3)    170.7468         0.001500   
    373. D(C  31,C  33,C  24,H   4)   -171.1346         0.001500   
    374. D(C  31,C  33,C  30,H   8)    179.9671         0.027987   
    375. D(C  31,C  33,C  30,C  27)     -0.0327         0.027987 C 
    376. D(I  36,C  33,C  30,H   8)      0.0167         0.027987   
    377. D(I  36,C  33,C  30,C  27)   -179.9831         0.027987 C 
    378. D(C  24,C  33,C  30,H   8)   -104.5131         0.027987   
    379. D(C  30,C  33,C  31,H   9)    179.9126         0.034208   
    380. D(C  31,C  33,C  24,H   2)    -66.0932         0.001500   
    381. D(C  30,C  33,C  31,C  25)     -0.0876         0.034208 C 
    382. D(C  30,C  33,C  31,C  24)    146.6786         0.034208 C 
    383. D(C  30,C  33,C  31,C  22)    128.6982         0.034208 C 
    384. D(C  30,C  33,C  31,C  19)    109.4850         0.034208 C 
    385. D(I  36,C  33,C  31,H   9)     -0.1360         0.034208   
    386. D(I  36,C  33,C  31,C  25)    179.8638         0.034208 C 
    387. D(I  36,C  33,C  31,O  23)    -52.8540         0.034208 C 
    388. D(H  17,O  35,C  26,C  25)   -123.4261         0.026973   
    389. D(H  17,O  35,C  26,C  27)     54.8694         0.026973   
    390. D(C  33,I  36,C  24,H   2)   -104.5314         0.001500   
    391. D(C  33,I  36,C  24,H   3)    144.6235         0.001500   
    392. D(C  33,I  36,C  24,H   4)      7.0834         0.001500   
    393. D(C  33,I  36,C  24,C  22)     24.9145         0.001500 C 
    394. D(C  33,I  36,C  24,C  31)    -13.0464         0.001500 C 
    395. D(C  24,I  36,C  33,C  30)   -150.4511         0.001809 C 
    396. D(C  24,I  36,C  33,C  31)     29.5982         0.001809 C 
    397. D(H  13,C  37,N  29,C  28)     63.0584         0.015719   
    398. D(H  13,C  37,N  29,C  32)   -167.6129         0.015719   
    399. D(H  13,C  37,N  29,O  23)    122.0760         0.015719   
    400. D(H  14,C  37,N  29,C  28)   -176.9811         0.015719   
    401. D(H  14,C  37,N  29,C  32)    -47.6524         0.015719   
    402. D(H  14,C  37,N  29,O  23)   -117.9635         0.015719   
    -----------------------------------------------------------------

Number of atoms                         .... 38
Number of degrees of freedom            .... 402


         *************************************************************
         *                GEOMETRY OPTIMIZATION CYCLE   1            *
         *************************************************************
---------------------------------
CARTESIAN COORDINATES (ANGSTROEM)
---------------------------------
  H     94.053101   95.579651  -47.388393
  H     93.333061   96.482246  -50.216503
  H     91.442993   94.847305  -49.949322
  H     93.050354   94.087502  -50.027538
  H     92.223206   94.262146  -48.460743
  H     94.666161   98.048378  -48.742676
  H     91.951332   97.732941  -49.190563
  H     90.922493   97.134789  -46.545330
  H     92.183914   92.192429  -43.641792
  H     90.888481   94.745415  -46.862087
  H     93.449921   97.771004  -44.707966
  H     92.870781   98.204300  -46.333961
  H     93.082275   99.468002  -45.097897
  H     89.671066   99.350357  -44.392143
  H     91.177132  100.294167  -44.481533
  H     89.652809   97.194633  -45.252560
  H     90.412285   99.694290  -45.973064
  H     92.393906   96.716225  -42.383892
  N     94.934998   97.276001  -48.150002
  C     94.320999   95.968002  -48.370998
  C     95.289001   94.991997  -49.035999
  O     95.830002   95.273003  -50.103001
  C     93.049004   96.089996  -49.240002
  O     92.116997   96.985001  -48.612000
  C     92.394997   94.723999  -49.432999
  C     91.150002   95.734001  -44.952999
  C     91.511002   95.542999  -43.613998
  C     91.883003   94.282997  -43.152000
  C     90.714996   97.095001  -45.476002
  N     91.397003   98.231003  -44.827000
  C     91.896004   93.176003  -44.013000
  C     91.167000   94.617996  -45.816002
  C     92.791000   98.431999  -45.271000
  C     91.536003   93.348000  -45.351002
  I     92.385002   94.073997  -41.117001
  O     91.524002   96.626999  -42.779999
  I     91.536003   91.734001  -46.681999
  C     90.613998   99.473000  -44.924999

----------------------------
CARTESIAN COORDINATES (A.U.)
----------------------------
  NO LB      ZA    FRAG     MASS         X           Y           Z
   0 H     1.0000    2     1.008  177.734603  180.619364  -89.551085
   1 H     1.0000    2     1.008  176.373925  182.325022  -94.895438
   2 H     1.0000    2     1.008  172.802214  179.235431  -94.390539
   3 H     1.0000    2     1.008  175.839686  177.799611  -94.538346
   4 H     1.0000    2     1.008  174.276603  178.129641  -91.577533
   5 H     1.0000    2     1.008  178.893118  185.284582  -92.110309
   6 H     1.0000    2     1.008  173.762835  184.688493  -92.956692
   7 H     1.0000    1     1.008  171.818611  183.558149  -87.957927
   8 H     1.0000    1     1.008  174.202351  174.218442  -82.471035
   9 H     1.0000    1     1.008  171.754338  179.042887  -88.556510
  10 H     1.0000    1     1.008  176.594758  184.760421  -84.485812
  11 H     1.0000    1     1.008  175.500342  185.579232  -87.558497
  12 H     1.0000    1     1.008  175.900008  187.967283  -85.222675
  13 H     1.0000    1     1.008  169.453757  187.744966  -83.888993
  14 H     1.0000    1     1.008  172.299809  189.528508  -84.057915
  15 H     1.0000    1     1.008  169.419256  183.671238  -85.514945
  16 H     1.0000    1     1.008  170.854458  188.394905  -86.876500
  17 H     1.0000    1     1.008  174.599179  182.767178  -80.093948
  18 N     7.0000    2    14.007  179.401147  183.825001  -90.990317
  19 C     6.0000    2    12.011  178.240857  181.353241  -91.407939
  20 C     6.0000    2    12.011  180.070115  179.508859  -92.664609
  21 O     8.0000    2    15.999  181.092459  180.039884  -94.680950
  22 C     6.0000    2    12.011  175.837135  181.583777  -93.050119
  23 O     8.0000    2    15.999  174.075897  183.275091  -91.863367
  24 C     6.0000    2    12.011  174.601240  179.002416  -93.414830
  25 C     6.0000    1    12.011  172.248541  180.911044  -84.948857
  26 C     6.0000    1    12.011  172.930732  180.550102  -82.418512
  27 C     6.0000    1    12.011  173.633712  178.169043  -81.545462
  28 C     6.0000    1    12.011  171.426499  183.482961  -85.937189
  29 N     7.0000    1    14.007  172.715305  185.629694  -84.710753
  30 C     6.0000    1    12.011  173.658280  176.077128  -83.172516
  31 C     6.0000    1    12.011  172.280662  178.802100  -86.579696
  32 C     6.0000    1    12.011  175.349578  186.009521  -85.549792
  33 C     6.0000    1    12.011  172.977977  176.402155  -85.700974
  34 I     7.0000*   1   126.900  174.582353  177.774091  -77.699871
  35 O     8.0000    1    15.999  172.955298  182.598565  -80.842482
  36 I     7.0000*   1   126.900  172.977977  173.352139  -88.216193
  37 C     6.0000    1    12.011  171.235640  187.976728  -84.895945
* core charge reduced due to ECP

----------------------------------------------
CARTESIAN COORDINATES OF FRAGMENTS (ANGSTROEM)
----------------------------------------------

 FRAGMENT 1 
  H    90.922493   97.134789  -46.545330
  H    92.183914   92.192429  -43.641792
  H    90.888481   94.745415  -46.862087
  H    93.449921   97.771004  -44.707966
  H    92.870781   98.204300  -46.333961
  H    93.082275   99.468002  -45.097897
  H    89.671066   99.350357  -44.392143
  H    91.177132  100.294167  -44.481533
  H    89.652809   97.194633  -45.252560
  H    90.412285   99.694290  -45.973064
  H    92.393906   96.716225  -42.383892
  C    91.150002   95.734001  -44.952999
  C    91.511002   95.542999  -43.613998
  C    91.883003   94.282997  -43.152000
  C    90.714996   97.095001  -45.476002
  N    91.397003   98.231003  -44.827000
  C    91.896004   93.176003  -44.013000
  C    91.167000   94.617996  -45.816002
  C    92.791000   98.431999  -45.271000
  C    91.536003   93.348000  -45.351002
  I    92.385002   94.073997  -41.117001
  O    91.524002   96.626999  -42.779999
  I    91.536003   91.734001  -46.681999
  C    90.613998   99.473000  -44.924999

 FRAGMENT 2 
  H    94.053101   95.579651  -47.388393
  H    93.333061   96.482246  -50.216503
  H    91.442993   94.847305  -49.949322
  H    93.050354   94.087502  -50.027538
  H    92.223206   94.262146  -48.460743
  H    94.666161   98.048378  -48.742676
  H    91.951332   97.732941  -49.190563
  N    94.934998   97.276001  -48.150002
  C    94.320999   95.968002  -48.370998
  C    95.289001   94.991997  -49.035999
  O    95.830002   95.273003  -50.103001
  C    93.049004   96.089996  -49.240002
  O    92.116997   96.985001  -48.612000
  C    92.394997   94.723999  -49.432999

--------------------------------
INTERNAL COORDINATES (ANGSTROEM)
--------------------------------
 H      0   0   0     0.000000000000     0.00000000     0.00000000
 H      1   0   0     3.054724456923     0.00000000     0.00000000
 H      2   1   0     2.513319479268    83.49050013     0.00000000
 H      3   2   1     1.779614487968    66.03562306   292.29289210
 H      3   2   1     1.779609738086    88.45959840   349.95038059
 H      2   1   3     2.530235379832    61.27703283   155.27436587
 H      2   1   3     2.127431760613    83.12695641    81.62372070
 H      7   2   1     2.900612543466   123.29312355   335.63222695
 H      5   3   2     5.244765110256   153.51177793   149.47907567
 H      5   3   2     2.137929081687   106.10742017   115.23163551
 H      8   7   2     3.188819262659   101.72340118    73.59468273
 H     11   8   7     1.779609031007    42.62433449    21.12311162
 H     11   8   7     1.779610063492    84.27602075    71.88503541
 H      8   7   2     3.333320470030   125.81599065   157.20646190
 H     14   8   7     1.779607452377    90.13396897   304.27919429
 H      8   7   2     1.812990081907   153.10996852   209.64881563
 H     14   8   7     1.779608586934    53.00456055   355.42808030
 H     11   8   7     2.762072840557    96.06175772   189.52372448
 N      6   2   1     1.010001006422    90.49865921    19.26995621
 C      1   2   3     1.089999276894    28.12300926   151.72447257
 C     20   1   2     1.527036332911   108.70277528   240.78835425
 O     21  20   1     1.228877423522   120.73301985   186.74765537
 C      2   1   3     1.090001213187    29.03610224    27.89742505
 O      7   2   1     0.959997021242    73.77117410   334.76628513
 C      4   3   2     1.089999014210    35.28035156    67.57975460
 C     16   8   7     2.113000121011    65.29467866   163.16506981
 C     26  16   8     1.399902297307   114.37070407   143.99100193
 C     27  26  16     1.392634889700   120.63988635   146.22226444
 C     16   8   7     1.089997287041    33.73167246   204.80398502
 N     29  16   8     1.475411023429   106.85223241   118.85129489
 C      9   5   3     1.090002459098    48.16230440   287.58087535
 C     10   5   3     1.090001037682   122.11927852   188.03037706
 C     12  11   8     1.089999050496    35.28042497    81.90088103
 C     31   9   5     1.396220985379   120.37258642    23.39980867
 I     28  27  26     2.106396193977   118.28980294   180.87753881
 O     18  11   8     0.959997397778    91.99188123   349.82076640
 I     34  31   9     2.092019547234   120.97455213     0.00000000
 C     15  14   8     1.089998732569    35.28046583    10.62240116

---------------------------
INTERNAL COORDINATES (A.U.)
---------------------------
 H      0   0   0     0.000000000000     0.00000000     0.00000000
 H      1   0   0     5.772592638176     0.00000000     0.00000000
 H      2   1   0     4.749485502865    83.49050013     0.00000000
 H      3   2   1     3.362984006218    66.03562306   292.29289210
 H      3   2   1     3.362975030242    88.45959840   349.95038059
 H      2   1   3     4.781451922240    61.27703283   155.27436587
 H      2   1   3     4.020263396165    83.12695641    81.62372070
 H      7   2   1     5.481363327768   123.29312355   335.63222695
 H      5   3   2     9.911169695128   153.51177793   149.47907567
 H      5   3   2     4.040100458134   106.10742017   115.23163551
 H      8   7   2     6.025995096998   101.72340118    73.59468273
 H     11   8   7     3.362973694056    42.62433449    21.12311162
 H     11   8   7     3.362975645170    84.27602075    71.88503541
 H      8   7   2     6.299062804951   125.81599065   157.20646190
 H     14   8   7     3.362970710878    90.13396897   304.27919429
 H      8   7   2     3.426054738319   153.10996852   209.64881563
 H     14   8   7     3.362972854881    53.00456055   355.42808030
 H     11   8   7     5.219561230594    96.06175772   189.52372448
 N      6   2   1     1.908625297123    90.49865921    19.26995621
 C      1   2   3     2.059800119502    28.12300926   151.72447257
 C     20   1   2     2.885680465749   108.70277528   240.78835425
 O     21  20   1     2.322241782615   120.73301985   186.74765537
 C      2   1   3     2.059803778566    29.03610224    27.89742505
 O      7   2   1     1.814131459528    73.77117410   334.76628513
 C      4   3   2     2.059799623101    35.28035156    67.57975460
 C     16   8   7     3.992991549654    65.29467866   163.16506981
 C     26  16   8     2.645431956157   114.37070407   143.99100193
 C     27  26  16     2.631698546076   120.63988635   146.22226444
 C     16   8   7     2.059796359225    33.73167246   204.80398502
 N     29  16   8     2.788122769250   106.85223241   118.85129489
 C      9   5   3     2.059806132996    48.16230440   287.58087535
 C     10   5   3     2.059803446908   122.11927852   188.03037706
 C     12  11   8     2.059799691672    35.28042497    81.90088103
 C     31   9   5     2.638475284801   120.37258642    23.39980867
 I     28  27  26     3.980511936151   118.28980294   180.87753881
 O     18  11   8     1.814132171078    91.99188123   349.82076640
 I     34  31   9     3.953344011083   120.97455213     0.00000000
 C     15  14   8     2.059799090876    35.28046583    10.62240116

---------------------
BASIS SET INFORMATION
---------------------
There are 5 groups of distinct atoms

 Group   1 Type H   : 3s contracted to 1s pattern {3}
 Group   2 Type N   : 6s3p contracted to 2s1p pattern {33/3}
 Group   3 Type C   : 6s3p contracted to 2s1p pattern {33/3}
 Group   4 Type O   : 6s3p contracted to 2s1p pattern {33/3}
 Group   5 Type I   : 10s7p6d contracted to 4s4p2d pattern {6211/4111/51}

Atom   0H    basis set group =>   1
Atom   1H    basis set group =>   1
Atom   2H    basis set group =>   1
Atom   3H    basis set group =>   1
Atom   4H    basis set group =>   1
Atom   5H    basis set group =>   1
Atom   6H    basis set group =>   1
Atom   7H    basis set group =>   1
Atom   8H    basis set group =>   1
Atom   9H    basis set group =>   1
Atom  10H    basis set group =>   1
Atom  11H    basis set group =>   1
Atom  12H    basis set group =>   1
Atom  13H    basis set group =>   1
Atom  14H    basis set group =>   1
Atom  15H    basis set group =>   1
Atom  16H    basis set group =>   1
Atom  17H    basis set group =>   1
Atom  18N    basis set group =>   2
Atom  19C    basis set group =>   3
Atom  20C    basis set group =>   3
Atom  21O    basis set group =>   4
Atom  22C    basis set group =>   3
Atom  23O    basis set group =>   4
Atom  24C    basis set group =>   3
Atom  25C    basis set group =>   3
Atom  26C    basis set group =>   3
Atom  27C    basis set group =>   3
Atom  28C    basis set group =>   3
Atom  29N    basis set group =>   2
Atom  30C    basis set group =>   3
Atom  31C    basis set group =>   3
Atom  32C    basis set group =>   3
Atom  33C    basis set group =>   3
Atom  34I    basis set group =>   5
Atom  35O    basis set group =>   4
Atom  36I    basis set group =>   5
Atom  37C    basis set group =>   3
-------------------------
ECP PARAMETER INFORMATION
-------------------------

 Group 1, Type I  ECP Def-ECP (replacing 46 core electrons, lmax=3)

Atom  34I    ECP group =>   1
Atom  36I    ECP group =>   1

------------------------------------------------------------------------------
                             ORCA STARTUP CALCULATIONS
------------------------------------------------------------------------------
------------------------------------------------------------------------------
                   ___                                                        
                  /   \      - P O W E R E D   B Y -                         
                 /     \                                                     
                 |  |  |   _    _      __       _____    __    __             
                 |  |  |  | |  | |    /  \     |  _  \  |  |  /  |          
                  \  \/   | |  | |   /    \    | | | |  |  | /  /          
                 / \  \   | |__| |  /  /\  \   | |_| |  |  |/  /          
                |  |  |   |  __  | /  /__\  \  |    /   |      \           
                |  |  |   | |  | | |   __   |  |    \   |  |\   \          
                \     /   | |  | | |  |  |  |  | |\  \  |  | \   \       
                 \___/    |_|  |_| |__|  |__|  |_| \__\ |__|  \__/        
                                                                              
                      - O R C A' S   B I G   F R I E N D -                    
                                      &                                       
                       - I N T E G R A L  F E E D E R -                       
                                                                              
 v1 FN, 2020, v2 2021, v3 2022-2024                                           
------------------------------------------------------------------------------


----------------------
SHARK INTEGRAL PACKAGE
----------------------

Number of atoms                             ...     38
Number of basis functions                   ...    160
Number of shells                            ...     92
Maximum angular momentum                    ...      2
Integral batch strategy                     ... SHARK/LIBINT Hybrid
RI-J (if used) integral strategy            ... SPLIT-RIJ (Revised 2003 algorithm where possible)
Printlevel                                  ...      1
Contraction scheme used                     ... SEGMENTED contraction
Prescreening option                         ... SCHWARTZ
   Thresh                                   ... 2.500e-11
   Tcut                                     ... 2.500e-12
   Tpresel                                  ... 2.500e-12 
Coulomb Range Separation                    ... NOT USED
Exchange Range Separation                   ... NOT USED
Multipole approximations                    ... NOT USED
Finite Nucleus Model                        ... NOT USED
CABS basis                                  ... NOT available
Auxiliary Coulomb fitting basis             ... NOT available
Auxiliary J/K fitting basis                 ... NOT available
Auxiliary Correlation fitting basis         ... NOT available
Auxiliary 'external' fitting basis          ... NOT available

Checking pre-screening integrals            ... done (  0.0 sec) Dimension = 92
Check shell pair data                       ... done (  0.0 sec)
Shell pair information
Shell pair cut-off parameter TPreSel        ...   2.5e-12
Total number of shell pairs                 ...      4278
Shell pairs after pre-screening             ...      3229
Total number of primitive shell pairs       ...     34733
Primitive shell pairs kept                  ...     14955
          la=0 lb=0:   1440 shell pairs
          la=1 lb=0:   1264 shell pairs
          la=1 lb=1:    300 shell pairs
          la=2 lb=0:    141 shell pairs
          la=2 lb=1:     75 shell pairs
          la=2 lb=2:      9 shell pairs

Calculating one electron integrals          ... done (  0.0 sec)
Calculating ECP integrals                   ... done (  0.3 sec)
Calculating Nuclear repulsion               ... done (  0.0 sec) ENN=   1504.265075276947 Eh
Calculating 4-index integrals               ...     -> SHARK/Ints2Disk: Thresh =     2.500000e-11 TCut=    2.500000e-12 
    -> calling libint FockFlag=2 Lmax_loc=2
    -> L=0 1 2 2:     0.136 sec done=      8261 (=100.0%) skipped=         0 
    -> L=0 2 2 2:     0.032 sec done=       888 (=100.0%) skipped=         0 
    -> L=1 1 1 2:     0.165 sec done=     17419 (=100.0%) skipped=         0 
    -> L=1 1 2 2:     0.098 sec done=      1960 (=100.0%) skipped=         0 
    -> L=1 2 1 2:     0.071 sec done=      2076 (=100.0%) skipped=         0 
    -> L=1 2 2 2:     0.045 sec done=       475 (=100.0%) skipped=         0 
    -> L=2 2 2 2:     0.013 sec done=        27 (=100.0%) skipped=         0 
    ->Total LIBINT loop time =    0.563 sec
    -> L=0 0 0 0:     0.328 sec done=    719787 (=100.0%) skipped=         0 
    -> L=1 0 0 0:     0.809 sec done=   1305582 (=100.0%) skipped=         0 
    -> L=1 0 1 0:     0.608 sec done=    592012 (=100.0%) skipped=         0 
    -> L=1 1 0 0:     0.339 sec done=    330169 (=100.0%) skipped=         0 
    -> L=1 1 1 0:     0.629 sec done=    297149 (=100.0%) skipped=         0 
    -> L=1 1 1 1:     0.194 sec done=     36895 (=100.0%) skipped=         0 
    -> L=2 0 0 0:     0.117 sec done=    128276 (=100.0%) skipped=         0 
    -> L=2 0 1 0:     0.206 sec done=    117188 (=100.0%) skipped=         0 
    -> L=2 0 1 1:     0.136 sec done=     29979 (=100.0%) skipped=         0 
    -> L=2 0 2 0:     0.019 sec done=      5751 (=100.0%) skipped=         0 
    -> L=2 1 0 0:     0.126 sec done=     77271 (=100.0%) skipped=         0 
    -> L=2 1 1 0:     0.261 sec done=     69844 (=100.0%) skipped=         0 
    -> L=2 1 2 0:     0.056 sec done=      7000 (=100.0%) skipped=         0 
    -> L=2 2 0 0:     0.063 sec done=      9406 (=100.0%) skipped=         0 
    ->Total SHARK integral loop time =    3.892 sec
    -> Total Integral generation matrix time =    4.466 sec
    -> Number of small integrals   =   7510159
    -> Number of medium integrals  =   9610014
    -> Number of large integrals   =  11368363
    -> Number of MB stored         =       248 MB

done (  4.5 sec)

Diagonalization of the overlap matrix:
Smallest eigenvalue                        ... 6.280e-02
Time for diagonalization                   ...    0.003 sec
Threshold for overlap eigenvalues          ... 1.000e-07
Number of eigenvalues below threshold      ... 0
Time for construction of square roots      ...    0.002 sec
Total time needed                          ...    0.006 sec

-------------------
DFT GRID GENERATION
-------------------

General Integration Accuracy     IntAcc      ... 4.388
Radial Grid Type                 RadialGrid  ... OptM3 with GC (2021)
Angular Grid (max. ang.)         AngularGrid ... 4 (Lebedev-302)
Angular grid pruning method      GridPruning ... 4 (adaptive)
Weight generation scheme         WeightScheme... mBecke (2022)
Basis function cutoff            BFCut       ... 1.0000e-11
Integration weight cutoff        WCut        ... 1.0000e-14
Partially contracted basis set               ... off
Rotationally invariant grid construction     ... off
Angular grids for H and He will be reduced by one unit

Total number of grid points                  ...   187024
Total number of batches                      ...     2943
Average number of points per batch           ...       63
Average number of grid points per atom       ...     4922
Initializing property integral containers    ... done (  0.0 sec)

SHARK setup successfully completed in   7.5 seconds

Maximum memory used throughout the entire STARTUP-calculation: 69.7 MB
-------------------------------------------------------------------------------
                                 ORCA GUESS
                   Start orbitals & Density for SCF / CASSCF
-------------------------------------------------------------------------------

------------
SCF SETTINGS
------------
Hamiltonian:
 Ab initio Hamiltonian  Method          .... Hartree-Fock(GTOs)


General Settings:
 Integral files         IntName         .... 4aglTightSmallComplexFragmented_input
 Hartree-Fock type      HFTyp           .... RHF
 Total Charge           Charge          ....    0
 Multiplicity           Mult            ....    1
 Number of Electrons    NEL             ....  148
 Basis Dimension        Dim             ....  160
 Nuclear Repulsion      ENuc            ....   1504.2650752769 Eh

Convergence Acceleration:
 AO-DIIS                CNVDIIS         .... on
   Start iteration      DIISMaxIt       ....    12
   Startup error        DIISStart       ....  0.200000
   # of expansion vecs  DIISMaxEq       ....     5
   Bias factor          DIISBfac        ....   1.050
   Max. coefficient     DIISMaxC        ....  10.000
 MO-DIIS                CNVKDIIS        .... off
 Trust-Rad. Augm. Hess. CNVTRAH         .... auto
   Auto Start mean grad. ratio tolernc. ....  1.125000
   Auto Start start iteration           ....    50
   Auto Start num. interpolation iter.  ....    10
   Max. Number of Micro iterations      ....    24
   Max. Number of Macro iterations      .... Maxiter - #DIIS iter
   Number of Davidson start vectors     ....     2
   Converg. threshold    (grad. norm)   ....   1.000e-05
   Grad. Scal. Fac. for Micro threshold ....   0.100
   Minimum threshold for Micro iter.    ....   1.000e-02
   NR start threshold (gradient norm)   ....   1.000e-04
   Initial trust radius                 ....   0.400
   Minimum AH scaling param. (alpha)    ....   1.000
   Maximum AH scaling param. (alpha)    .... 1000.000
   Quad. conv. algorithm                .... NR
   White noise on init. David. guess    .... on
   Maximum white noise                  ....   0.010
   Pseudo random numbers                .... off
   Inactive MOs                         .... canonical
   Orbital update algorithm             .... Taylor
   Preconditioner                       .... Diag
   Full preconditioner red. dimension   ....   250
 SOSCF                  CNVSOSCF        .... on
   Start iteration      SOSCFMaxIt      ....   150
   Startup grad/error   SOSCFStart      ....  0.003300
   Hessian update       SOSCFHessUp     .... L-BFGS
 Level Shifting         CNVShift        .... on
   Level shift para.    LevelShift      ....    0.2500
   Turn off err/grad.   ShiftErr        ....    0.0010
 Zerner damping         CNVZerner       .... off
 Static damping         CNVDamp         .... on
   Fraction old density DampFac         ....    0.7000
   Max. Damping (<1)    DampMax         ....    0.9800
   Min. Damping (>=0)   DampMin         ....    0.0000
   Turn off err/grad.   DampErr         ....    0.1000

SCF Procedure:
 Maximum # iterations   MaxIter         ....   125
 SCF integral mode      SCFMode         .... Conventional
 Integral Threshold     Thresh          ....  2.500e-11 Eh
 Primitive CutOff       TCut            ....  2.500e-12 Eh
 Integral Buffer length BufferLength    .... 1048576
 Integral index format  IndFormat       ....     0
 Integral value format  ValFormat       ....     0
 Integral Storage       Thresh          ....  2.500e-11 Eh

Convergence Tolerance:
 Convergence Check Mode ConvCheckMode   .... Total+1el-Energy
 Convergence forced     ConvForced      .... 0
 Energy Change          TolE            ....  1.000e-08 Eh
 1-El. energy change                    ....  1.000e-05 Eh
 Orbital Gradient       TolG            ....  1.000e-05
 Orbital Rotation angle TolX            ....  1.000e-05
 DIIS Error             TolErr          ....  5.000e-07

--------------------------------
INITIAL GUESS: MINIMAL BASIS EHT
--------------------------------
The minimal basis has 116 functions
EHT matrix was diagonalized
Basis set overlap was calculated now projecting the orbitals
Using GuessMode=FMatrix for the initial guess
C*T matrix was formed
Effective Fockian was calculated
Effective Fockian was diagonalized
Initial density was built
                      ------------------
                      INITIAL GUESS DONE
                      ------------------
             **** ENERGY FILE WAS UPDATED (4aglTightSmallComplexFragmented_input.en.tmp) ****
Finished Guess after   0.1 sec
Maximum memory used throughout the entire GUESS-calculation: 10.6 MB

-------------------------------------------------------------------------------------------
                                      ORCA LEAN-SCF
                              memory conserving SCF solver
-------------------------------------------------------------------------------------------


 InCore treatment chosen for four center integrals:
   Memory dedicated               ...    1024 MB
   Memory needed                  ...    248 MB
   Number of tiny    integrals    ... 7510159
   Number of small   integrals    ... 9610014
   Number of regular integrals    ... 11368363

----------------------------------------D-I-I-S--------------------------------------------
Iteration    Energy (Eh)           Delta-E    RMSDP     MaxDP     DIISErr   Damp  Time(sec)
-------------------------------------------------------------------------------------------
    1    -849.4236720125800275     0.00e+00  8.66e-03  2.93e-01  1.75e+00  0.700   0.8
    2    -850.3103842376399371    -8.87e-01  7.04e-03  2.37e-01  1.23e+00  0.700   0.8
    3    -850.8933860746942628    -5.83e-01  4.79e-03  1.27e-01  8.60e-01  0.700   0.8
    4    -851.2961204340886070    -4.03e-01  3.29e-03  8.93e-02  6.03e-01  0.700   0.8
    5    -851.5881121615752818    -2.92e-01  2.41e-03  6.61e-02  4.23e-01  0.700   0.8
    6    -851.7996168889444562    -2.12e-01  1.83e-03  4.90e-02  2.96e-01  0.700   0.8
    7    -851.9513815983596032    -1.52e-01  1.40e-03  3.64e-02  2.08e-01  0.700   0.8
                               ***Turning on AO-DIIS***
    8    -852.0597777117918667    -1.08e-01  1.26e-03  2.97e-02  1.46e-01  0.700   0.8
    9    -852.1371860152958106    -7.74e-02  1.01e-03  2.35e-02  1.02e-01  0.700   0.8
   10    -852.1924095663734988    -5.52e-02  7.95e-04  1.82e-02  7.15e-02  0.700   0.8
   11    -852.2317534951894231    -3.93e-02  2.07e-03  4.88e-02  5.01e-02  0.000   0.8
   12    -852.3270288831226935    -9.53e-02  3.38e-04  1.38e-02  5.23e-03  0.000   0.7
   13    -852.3274925767696004    -4.64e-04  4.21e-04  1.93e-02  4.67e-03  0.000   0.8
   14    -852.3279045597637378    -4.12e-04  3.44e-04  1.63e-02  3.78e-03  0.000   0.8
                              *** Initializing SOSCF ***
---------------------------------------S-O-S-C-F--------------------------------------
Iteration    Energy (Eh)           Delta-E    RMSDP     MaxDP     MaxGrad    Time(sec)
--------------------------------------------------------------------------------------
   15    -852.3281353598899841    -2.31e-04  2.50e-04  1.26e-02  2.92e-03     0.8
   16    -852.3282548347397096    -1.19e-04  1.34e-04  6.51e-03  2.22e-03     0.7
   17    -852.3283046650749384    -4.98e-05  5.04e-04  2.52e-02  1.70e-03     0.7
   18    -852.3283815686086200    -7.69e-05  5.36e-05  2.06e-03  5.47e-04     0.8
   19    -852.3283864380359773    -4.87e-06  2.42e-05  7.72e-04  3.37e-04     0.7
   20    -852.3283879859718581    -1.55e-06  1.87e-05  5.54e-04  7.90e-05     0.9
   21    -852.3283883720800986    -3.86e-07  1.16e-05  5.40e-04  6.22e-05     0.8
   22    -852.3283884565544213    -8.45e-08  3.90e-06  1.49e-04  3.91e-05     0.7
   23    -852.3283884950965330    -3.85e-08  2.81e-06  9.53e-05  1.13e-05     0.8
   24    -852.3283885036012180    -8.50e-09  8.96e-07  2.87e-05  5.37e-06     0.7
                 **** Energy Check signals convergence ****

               *****************************************************
               *                     SUCCESS                       *
               *           SCF CONVERGED AFTER  24 CYCLES          *
               *****************************************************

             **** ENERGY FILE WAS UPDATED (4aglTightSmallComplexFragmented_input.en.tmp) ****

----------------
TOTAL SCF ENERGY
----------------

Total Energy       :       -852.32838850360122 Eh          -23193.03456 eV

Components:
Nuclear Repulsion  :       1504.26507527694685 Eh           40933.13370 eV
Electronic Energy  :      -2356.59346378054806 Eh          -64126.16826 eV
One Electron Energy:      -4159.43684116828626 Eh         -113184.03061 eV
Two Electron Energy:       1802.84337738773820 Eh           49057.86235 eV

Virial components:
Potential Energy   :      -1688.07537387249226 Eh          -45934.86621 eV
Kinetic Energy     :        835.74698536889105 Eh           22741.83164 eV
Virial Ratio       :          2.01984021889997

---------------
SCF CONVERGENCE
---------------

  Last Energy change         ...    8.5047e-09  Tolerance :   1.0000e-08
  Last MAX-Density change    ...    2.8663e-05  Tolerance :   1.0000e-07
  Last RMS-Density change    ...    8.9650e-07  Tolerance :   5.0000e-09
  Last DIIS Error            ...    2.9172e-03  Tolerance :   5.0000e-07
  Last Orbital Gradient      ...    5.3709e-06  Tolerance :   1.0000e-05
  Last Orbital Rotation      ...    1.7257e-05  Tolerance :   1.0000e-05


----------------
ORBITAL ENERGIES
----------------

  NO   OCC          E(Eh)            E(eV) 
   0   2.0000     -20.432169      -555.9876 
   1   2.0000     -20.359283      -554.0042 
   2   2.0000     -20.338998      -553.4523 
   3   2.0000     -15.384329      -418.6289 
   4   2.0000     -15.365474      -418.1158 
   5   2.0000     -11.292124      -307.2743 
   6   2.0000     -11.278980      -306.9167 
   7   2.0000     -11.276155      -306.8398 
   8   2.0000     -11.259311      -306.3814 
   9   2.0000     -11.230331      -305.5928 
  10   2.0000     -11.229560      -305.5719 
  11   2.0000     -11.216584      -305.2188 
  12   2.0000     -11.211177      -305.0716 
  13   2.0000     -11.205347      -304.9130 
  14   2.0000     -11.201216      -304.8006 
  15   2.0000     -11.175581      -304.1030 
  16   2.0000     -11.173904      -304.0574 
  17   2.0000     -11.170704      -303.9703 
  18   2.0000      -1.440715       -39.2038 
  19   2.0000      -1.391998       -37.8782 
  20   2.0000      -1.375219       -37.4216 
  21   2.0000      -1.211351       -32.9625 
  22   2.0000      -1.185997       -32.2726 
  23   2.0000      -1.179886       -32.1063 
  24   2.0000      -1.070975       -29.1427 
  25   2.0000      -1.058729       -28.8095 
  26   2.0000      -1.053034       -28.6545 
  27   2.0000      -0.954879       -25.9836 
  28   2.0000      -0.946662       -25.7600 
  29   2.0000      -0.943428       -25.6720 
  30   2.0000      -0.911874       -24.8134 
  31   2.0000      -0.903573       -24.5875 
  32   2.0000      -0.858678       -23.3658 
  33   2.0000      -0.836672       -22.7670 
  34   2.0000      -0.806994       -21.9594 
  35   2.0000      -0.778203       -21.1760 
  36   2.0000      -0.768664       -20.9164 
  37   2.0000      -0.725732       -19.7482 
  38   2.0000      -0.708568       -19.2811 
  39   2.0000      -0.690716       -18.7953 
  40   2.0000      -0.673504       -18.3270 
  41   2.0000      -0.647068       -17.6076 
  42   2.0000      -0.645447       -17.5635 
  43   2.0000      -0.634022       -17.2526 
  44   2.0000      -0.633205       -17.2304 
  45   2.0000      -0.630286       -17.1510 
  46   2.0000      -0.615911       -16.7598 
  47   2.0000      -0.588512       -16.0142 
  48   2.0000      -0.587990       -16.0000 
  49   2.0000      -0.581947       -15.8356 
  50   2.0000      -0.573502       -15.6058 
  51   2.0000      -0.563676       -15.3384 
  52   2.0000      -0.559813       -15.2333 
  53   2.0000      -0.555300       -15.1105 
  54   2.0000      -0.547418       -14.8960 
  55   2.0000      -0.537236       -14.6189 
  56   2.0000      -0.534680       -14.5494 
  57   2.0000      -0.526036       -14.3142 
  58   2.0000      -0.513665       -13.9775 
  59   2.0000      -0.499760       -13.5991 
  60   2.0000      -0.494515       -13.4564 
  61   2.0000      -0.489513       -13.3203 
  62   2.0000      -0.471036       -12.8176 
  63   2.0000      -0.466324       -12.6893 
  64   2.0000      -0.461631       -12.5616 
  65   2.0000      -0.428990       -11.6734 
  66   2.0000      -0.397458       -10.8154 
  67   2.0000      -0.389604       -10.6017 
  68   2.0000      -0.378325       -10.2947 
  69   2.0000      -0.374789       -10.1985 
  70   2.0000      -0.345025        -9.3886 
  71   2.0000      -0.326761        -8.8916 
  72   2.0000      -0.319495        -8.6939 
  73   2.0000      -0.278821        -7.5871 
  74   0.0000       0.028494         0.7754 
  75   0.0000       0.112583         3.0635 
  76   0.0000       0.142480         3.8771 
  77   0.0000       0.150711         4.1011 
  78   0.0000       0.153890         4.1876 
  79   0.0000       0.162042         4.4094 
  80   0.0000       0.368804        10.0357 
  81   0.0000       0.443779        12.0758 
  82   0.0000       0.451795        12.2940 
  83   0.0000       0.464456        12.6385 
  84   0.0000       0.492507        13.4018 
*Only the first 10 virtual orbitals were printed.

                    ********************************
                    * MULLIKEN POPULATION ANALYSIS *
                    ********************************

-------------------------
MULLIKEN FRAGMENT CHARGES
-------------------------
 Fragment   0 :  -0.004384
 Fragment   1 :   0.004384
Sum of fragment charges:   -0.0000000

---------------------------------
MULLIKEN FRAGMENT OVERLAP CHARGES
---------------------------------
                  0          1    
      0     110.611634  -0.014172
      1      -0.014172  62.320090

-----------------------
MULLIKEN ATOMIC CHARGES
-----------------------
   0 H :    0.168981
   1 H :    0.135210
   2 H :    0.138996
   3 H :    0.135537
   4 H :    0.143312
   5 H :    0.203048
   6 H :    0.308722
   7 H :    0.144711
   8 H :    0.164247
   9 H :    0.154431
  10 H :    0.121944
  11 H :    0.122197
  12 H :    0.126839
  13 H :    0.129439
  14 H :    0.128042
  15 H :    0.145601
  16 H :    0.106406
  17 H :    0.337733
  18 N :   -0.304010
  19 C :   -0.076298
  20 C :    0.306395
  21 O :   -0.345476
  22 C :    0.064284
  23 O :   -0.507667
  24 C :   -0.366649
  25 C :   -0.009736
  26 C :    0.192919
  27 C :   -0.135708
  28 C :   -0.134392
  29 N :   -0.305687
  30 C :   -0.117476
  31 C :   -0.120404
  32 C :   -0.261239
  33 C :   -0.134668
  34 I :    0.030114
  35 O :   -0.471684
  36 I :    0.036355
  37 C :   -0.254368
Sum of atomic charges:   -0.0000000

--------------------------------
MULLIKEN REDUCED ORBITAL CHARGES
--------------------------------
  0 H s       :     0.831019  s :     0.831019

  1 H s       :     0.864790  s :     0.864790

  2 H s       :     0.861004  s :     0.861004

  3 H s       :     0.864463  s :     0.864463

  4 H s       :     0.856688  s :     0.856688

  5 H s       :     0.796952  s :     0.796952

  6 H s       :     0.691278  s :     0.691278

[...]
  17 H :    0.258921
  18 N :   -0.260038
  19 C :   -0.036530
  20 C :    0.221347
  21 O :   -0.221323
  22 C :    0.097287
  23 O :   -0.367368
  24 C :   -0.242912
  25 C :   -0.018260
  26 C :    0.172361
  27 C :    0.001250
  28 C :   -0.065255
  29 N :   -0.190691
  30 C :   -0.050384
  31 C :   -0.062083
  32 C :   -0.150512
  33 C :    0.025656
  34 I :   -0.144464
  35 O :   -0.320534
  36 I :   -0.141718
  37 C :   -0.151870

-------------------------------
LOEWDIN REDUCED ORBITAL CHARGES
-------------------------------
  0 H s       :     0.899644  s :     0.899644

  1 H s       :     0.922630  s :     0.922630

  2 H s       :     0.901241  s :     0.901241

  3 H s       :     0.909981  s :     0.909981

  4 H s       :     0.903774  s :     0.903774

  5 H s       :     0.879319  s :     0.879319

  6 H s       :     0.770801  s :     0.770801

  7 H s       :     0.915711  s :     0.915711

  8 H s       :     0.890234  s :     0.890234

  9 H s       :     0.896715  s :     0.896715

 10 H s       :     0.916283  s :     0.916283

 11 H s       :     0.943768  s :     0.943768

 12 H s       :     0.916984  s :     0.916984

 13 H s       :     0.920025  s :     0.920025

 14 H s       :     0.918613  s :     0.918613

 15 H s       :     0.908695  s :     0.908695

 16 H s       :     0.938464  s :     0.938464

 17 H s       :     0.741079  s :     0.741079

 18 N s       :     3.573959  s :     3.573959
      pz      :     1.385810  p :     3.686079
      px      :     1.362317
      py      :     0.937952

 19 C s       :     3.004500  s :     3.004500
      pz      :     1.097808  p :     3.032030
      px      :     1.016319
      py      :     0.917903

 20 C s       :     3.334995  s :     3.334995
      pz      :     0.888843  p :     2.443658
      px      :     0.732771
      py      :     0.822044

 21 O s       :     3.717539  s :     3.717539
      pz      :     1.441055  p :     4.503784
      px      :     1.438996
      py      :     1.623733

 22 C s       :     2.972196  s :     2.972196
      pz      :     1.015484  p :     2.930516
      px      :     0.919342
      py      :     0.995691

 23 O s       :     3.653873  s :     3.653873
      pz      :     1.808221  p :     4.713495
      px      :     1.577989
      py      :     1.327285

 24 C s       :     2.979458  s :     2.979458
      pz      :     1.121778  p :     3.263454
      px      :     1.106873
      py      :     1.034803

 25 C s       :     2.949429  s :     2.949429
      pz      :     1.012437  p :     3.068830
      px      :     1.017872
      py      :     1.038522

 26 C s       :     2.933113  s :     2.933113
      pz      :     0.996175  p :     2.894526
      px      :     0.976163
      py      :     0.922188

 27 C s       :     2.946503  s :     2.946503
      pz      :     0.911683  p :     3.052247
      px      :     1.092520
      py      :     1.048044

 28 C s       :     2.974850  s :     2.974850
      pz      :     1.071771  p :     3.090405
      px      :     1.067041
      py      :     0.951594

 29 N s       :     3.275284  s :     3.275284
      pz      :     1.749589  p :     3.915407
      px      :     1.073460
      py      :     1.092357

 30 C s       :     2.964542  s :     2.964542
      pz      :     1.028282  p :     3.085842
      px      :     0.988009
      py      :     1.069552

 31 C s       :     2.971029  s :     2.971029
      pz      :     1.079736  p :     3.091054
      px      :     0.985776
      py      :     1.025543

 32 C s       :     2.989930  s :     2.989930
      pz      :     1.080412  p :     3.160581
      px      :     0.962858
      py      :     1.117311

 33 C s       :     2.941122  s :     2.941122
      pz      :     0.993725  p :     3.033222
      px      :     1.073854
      py      :     0.965644

 34 I s       :     1.922267  s :     1.922267
      pz      :     1.224099  p :     5.134126
      px      :     1.929813
      py      :     1.980214
      dz2     :     0.051020  d :     0.088071
      dxz     :     0.023388
      dyz     :     0.009252
      dx2y2   :     0.003056
      dxy     :     0.001356

 35 O s       :     3.611532  s :     3.611532
      pz      :     1.264183  p :     4.709002
      px      :     1.875302
      py      :     1.569517

 36 I s       :     1.919620  s :     1.919620
      pz      :     1.660357  p :     5.134738
      px      :     1.983179
      py      :     1.491203
      dz2     :     0.007070  d :     0.087359
      dxz     :     0.006527
      dyz     :     0.045103
      dx2y2   :     0.018646
      dxy     :     0.010014

 37 C s       :     2.989722  s :     2.989722
      pz      :     1.101419  p :     3.162147
      px      :     1.065899
      py      :     0.994830



                      *****************************
                      * MAYER POPULATION ANALYSIS *
                      *****************************

  NA   - Mulliken gross atomic population
  ZA   - Total nuclear charge
  QA   - Mulliken gross atomic charge
  VA   - Mayer's total valence
  BVA  - Mayer's bonded valence
  FA   - Mayer's free valence

  ATOM       NA         ZA         QA         VA         BVA        FA
  0 H      0.8359     1.0000     0.1641     0.9731     0.9731     0.0000
  1 H      0.8628     1.0000     0.1372     0.9812     0.9812    -0.0000
  2 H      0.8513     1.0000     0.1487     0.9779     0.9779    -0.0000
  3 H      0.8638     1.0000     0.1362     0.9815     0.9815     0.0000
  4 H      0.8565     1.0000     0.1435     0.9794     0.9794     0.0000
  5 H      0.8211     1.0000     0.1789     0.9680     0.9680     0.0000
  6 H      0.6908     1.0000     0.3092     0.9044     0.9044    -0.0000
  7 H      0.8600     1.0000     0.1400     0.9804     0.9804    -0.0000
  8 H      0.8358     1.0000     0.1642     0.9730     0.9730     0.0000
  9 H      0.8424     1.0000     0.1576     0.9752     0.9752    -0.0000
 10 H      0.8674     1.0000     0.1326     0.9824     0.9824     0.0000
 11 H      0.8993     1.0000     0.1007     0.9899     0.9899     0.0000
 12 H      0.8679     1.0000     0.1321     0.9826     0.9826     0.0000
 13 H      0.8719     1.0000     0.1281     0.9836     0.9836    -0.0000
 14 H      0.8702     1.0000     0.1298     0.9832     0.9832    -0.0000
 15 H      0.8571     1.0000     0.1429     0.9796     0.9796     0.0000
 16 H      0.8914     1.0000     0.1086     0.9882     0.9882    -0.0000
 17 H      0.6639     1.0000     0.3361     0.8870     0.8870    -0.0000
 18 N      7.3262     7.0000    -0.3262     2.8617     2.8617    -0.0000
 19 C      6.0937     6.0000    -0.0937     3.9234     3.9234     0.0000
 20 C      5.6697     6.0000     0.3303     3.3107     3.3107     0.0000
 21 O      8.3347     8.0000    -0.3347     2.3356     2.3356     0.0000
 22 C      5.9293     6.0000     0.0707     3.9060     3.9060     0.0000
 23 O      8.4921     8.0000    -0.4921     1.9142     1.9142    -0.0000
 24 C      6.3702     6.0000    -0.3702     3.9357     3.9357     0.0000
 25 C      6.0156     6.0000    -0.0156     3.9925     3.9925     0.0000
 26 C      5.7940     6.0000     0.2060     3.9349     3.9349    -0.0000
 27 C      6.1433     6.0000    -0.1433     3.9558     3.9558    -0.0000
 28 C      6.1325     6.0000    -0.1325     3.9352     3.9352    -0.0000
 29 N      7.2988     7.0000    -0.2988     3.0407     3.0407    -0.0000
 30 C      6.1136     6.0000    -0.1136     3.9700     3.9700    -0.0000
 31 C      6.1176     6.0000    -0.1176     3.9722     3.9722     0.0000
 32 C      6.2545     6.0000    -0.2545     3.9227     3.9227    -0.0000
 33 C      6.1399     6.0000    -0.1399     3.9664     3.9664     0.0000
 34 I      6.9793     7.0000     0.0207     1.0461     1.0461    -0.0000
 35 O      8.4623     8.0000    -0.4623     2.0327     2.0327    -0.0000
 36 I      6.9662     7.0000     0.0338     1.0280     1.0280     0.0000
 37 C      6.2569     6.0000    -0.2569     3.9223     3.9223    -0.0000

  Mayer bond orders larger than 0.100000
B(  0-H , 19-C ) :   0.9368 B(  1-H , 22-C ) :   0.9434 B(  2-H , 24-C ) :   0.9672 
B(  3-H , 24-C ) :   0.9698 B(  4-H , 24-C ) :   0.9660 B(  5-H , 18-N ) :   0.9470 
B(  6-H , 23-O ) :   0.8745 B(  7-H , 28-C ) :   0.9482 B(  8-H , 30-C ) :   0.9574 
B(  9-H , 31-C ) :   0.9573 B( 10-H , 32-C ) :   0.9700 B( 11-H , 32-C ) :   0.9665 
B( 12-H , 32-C ) :   0.9694 B( 13-H , 37-C ) :   0.9704 B( 14-H , 37-C ) :   0.9704 
B( 15-H , 28-C ) :   0.9511 B( 16-H , 37-C ) :   0.9657 B( 17-H , 35-O ) :   0.8497 
B( 18-N , 19-C ) :   1.2563 B( 18-N , 20-C ) :   0.4223 B( 18-N , 21-O ) :   0.1860 
B( 19-C , 20-C ) :   0.7427 B( 19-C , 22-C ) :   0.9329 B( 20-C , 21-O ) :   2.0996 
B( 22-C , 23-O ) :   0.9556 B( 22-C , 24-C ) :   1.0022 B( 25-C , 26-C ) :   1.3527 
B( 25-C , 28-C ) :   0.9989 B( 25-C , 30-C ) :   0.1087 B( 25-C , 31-C ) :   1.4482 
B( 26-C , 27-C ) :   1.3930 B( 26-C , 35-O ) :   1.0448 B( 27-C , 30-C ) :   1.4268 
B( 27-C , 34-I ) :   0.9626 B( 28-C , 29-N ) :   0.9842 B( 29-N , 32-C ) :   0.9841 
B( 29-N , 37-C ) :   0.9846 B( 30-C , 33-C ) :   1.4483 B( 31-C , 33-C ) :   1.4213 
B( 33-C , 36-I ) :   0.9670 

-------
TIMINGS
-------

Total SCF time: 0 days 0 hours 0 min 3 sec 

Total time                  ....       3.465 sec
Sum of individual times     ....       3.433 sec  ( 99.1%)

SCF preparation             ....       0.215 sec  (  6.2%)
Fock matrix formation       ....       2.822 sec  ( 81.4%)
  Startup                   ....       0.032 sec  (  1.1% of F)
  Coulomb+Exchange Fock     ....       2.783 sec  ( 98.6% of F)
Diagonalization             ....       0.000 sec  (  0.0%)
Density matrix formation    ....       0.054 sec  (  1.6%)
Total Energy calculation    ....       0.048 sec  (  1.4%)
Population analysis         ....       0.168 sec  (  4.8%)
Orbital Transformation      ....       0.010 sec  (  0.3%)
Orbital Orthonormalization  ....       0.000 sec  (  0.0%)
DIIS solution               ....       0.035 sec  (  1.0%)
SOSCF solution              ....       0.081 sec  (  2.3%)
Finished LeanSCF after   3.6 sec

Maximum memory used throughout the entire LEANSCF-calculation: 309.2 MB


-------------------------------------------------------------------------------
                          DFT DISPERSION CORRECTION                            
                                                                               
                              DFTD3 V3.1  Rev 1                                
                          USING Becke-Johnson damping                          
-------------------------------------------------------------------------------
Hartree-Fock is recognized
Active option DFTDOPT                   ...         4   

molecular C6(AA) [au] = 21857.197851 


            DFT-D V3
 parameters
 using HF/MINIX parameters
 s6 scaling factor         :     1.0000 
 a1 scaling factor         :     0.4171 
 s8 scaling factor         :     0.8777 
 a2 scaling factor         :     2.9149 
 ad hoc parameters k1-k3   :    16.0000     1.3333    -4.0000 

 Edisp/kcal,au: -122.850313738932  -0.195774415706 
 E6   /kcal   : -68.048753410 
 E8   /kcal   : -54.801560329 
 % E8         :  44.608400794 

-------------------------   ----------------
Dispersion correction           -0.195774416
-------------------------   ----------------

 ** NOTE ** -> element i  will be treated as br
 ** NOTE ** -> element i  will be treated as br
NOTIFICATION: Different basis set in ORCA and otool_gcp:
ORCA: 160  gCP: 172 
If you are NOT using ECPs, check your basis set inputs!
------------------   -----------------
gCP+bas correction        -0.106909538
------------------   -----------------
----------------------------   ----------------
Total correction to HF/MINIX       -0.302683954
----------------------------   ----------------


-------------------------   --------------------
FINAL SINGLE POINT ENERGY      -852.662511308839
-------------------------   --------------------

                                *** OPTIMIZATION RUN DONE ***


------------------------------------------------------------------------------
                              ORCA PROPERTY CALCULATIONS
------------------------------------------------------------------------------

GBWName                                 ... 4aglTightSmallComplexFragmented_input.gbw
Number of atoms                         ...     38
Number of basis functions               ...    160
Max core memory                         ...   1024 MB

Electric properties:
Dipole moment                           ... YES
Quadrupole moment                       ...  NO
Static polarizability (Dipole/Dipole)   ...  NO
Static polarizability (Dipole/Quad.)    ...  NO
Static polarizability (Quad./Quad.)     ...  NO
Static polarizability (Velocity)        ...  NO

Atomic electric properties:
Dipole moment                           ...  NO
Quadrupole moment                       ...  NO
Static polarizability                   ...  NO

Choice of electric origin               ... Center of mass
Position of electric origin             ...   174.337837   178.618456   -85.270531

General magnetic properties:
Magnetizability                         ...  NO

EPR properties:
g-Tensor (aka g-matrix)                 ...  NO
Zero-Field splitting spin-orbit         ...  NO
Zero-field splitting spin-spin          ...  NO
Hyperfine couplings                     ...  NO (   0 nuclei)
Quadrupole couplings                    ...  NO (   0 nuclei)
Contact density                         ...  NO (   0 nuclei)

NMR properties:
Chemical shifts                         ...  NO (   0 nuclei)
Spin-rotation constants                 ...  NO (   0 nuclei)
Spin-spin couplings                     ...  NO (   0 nuclei,    0 pairs)

Choice of magnetic origin               ... GIAO
Position of magnetic origin             ...     0.000000     0.000000     0.000000

Properties with geometric perturbations:
SCF Hessian                             ...  NO
IR spectrum                             ...  NO
VCD spectrum                            ...  NO
X-ray spectroscopy properties:
SCF XES/XAS/RIXS spectra                ...  NO


-------------
DIPOLE MOMENT
-------------

Method             : SCF
Type of density    : Electron Density
Multiplicity       :   1
Irrep              :   0
Energy             :  -852.3598273548332145 Eh
Relativity type    : 
Basis              : AO
                                X                 Y                 Z
Electronic contribution:    -41.327664195    -374.527013858     289.487530437
Nuclear contribution   :     40.982223177     374.849210019    -290.025416307
                        -----------------------------------------
Total Dipole Moment    :     -0.345441017       0.322196161      -0.537885870
                        -----------------------------------------
Magnitude (a.u.)       :      0.715863863
Magnitude (Debye)      :      1.819581336



--------------------
Rotational spectrum 
--------------------
 
Rotational constants in cm-1:             0.005665             0.003499             0.002559 
Rotational constants in MHz :           169.840484           104.898519            76.721320 

Dipole components along the rotational axes: 
x,y,z [a.u.] :    -0.506710     0.243211     0.443345 
x,y,z [Debye]:    -1.287954     0.618193     1.126894 

 

Dipole moment calculation done in   0.0 sec 

Maximum memory used throughout the entire PROP-calculation: 10.5 MB

--------------------------------
SUGGESTED CITATIONS FOR THIS RUN
--------------------------------

Below you find a list of papers that are relevant to this ORCA run
We neither can nor want to force you to cite these papers, but we appreciate if you do
You receive ORCA, which is the product of decades of hard work by many enthusiastic individuals, for free
The only thing we kindly ask in return is that you cite our papers,
We deeply appreciate it, if you show your appreciation for ORCA by not just citing the generic ORCA reference.

Please note that relegating all ORCA citations to the supporting information does *not* help us.
SI sections are not indexed - citations you put there will not count into any citation statistics
But we need these citations in order to attract the funding resources that allow us to do what we are doing

Therefore, if you are a happy ORCA user, please consider citing a few of the papers listed below in the main body of your paper

In addition to the list printed below, the program has created the file 4aglTightSmallComplexFragmented_input.bibtex that contains the list in bibtex format
You can import this file easily into all common literature databanks and citation aid programs


List of essential papers. We consider these as the minimum necessary citations

  1. Neese,F.
     Software update: the ORCA program system, version 5.0
     WIRES Comput. Molec. Sci., 2022 12(1)e1606
     doi.org/10.1002/wcms.1606

List of papers to cite with high priority. The work reported in these papers was absolutely
necessary for this run to complete.
Our perspective: the developers of density functionals and basis sets usually get cited in chemistry papers
Good! But without the algorithms to do something with them, the functionals or basis sets would not do anything.
Hence, in our opinion, the algorithm design and method developments papers are equally worthy of getting cited

  1. Neese,F.
     The SHARK Integral Generation and Digestion System
     J. Comp. Chem., 2022  1-16
     doi.org/10.1002/jcc.26942
  2. Grimme,S.; Antony,J.; Ehrlich,S.; Krieg,H.
     A consistent and accurate ab initio parametrization of density functional dispersion correction (DFT-D) for the 94 elements H-Pu
     J. Chem. Phys., 2010 132 154104-XXXX
     doi.org/10.1063/1.3382344
  3. Grimme,S.; Ehrlich,S.; Goerigk,L.
     Effect of the damping function in dispersion corrected density functional theory
     J. Comput. Chem., 2011 32(7)1456-1465
     doi.org/10.1002/jcc.21759

List of suggested additional citations. These are papers that are important in the 'surrounding' of 
of this run, or papers that preceded the highly important papers. If you like your results we are grateful for a citation.

  1. Neese,F.
     The ORCA program system
     WIRES Comput. Molec. Sci., 2012 2(1)73-78
     doi.org/10.1002/wcms.81
  2. Neese,F.
     Software update: the ORCA program system, version 4.0
     WIRES Comput. Molec. Sci., 2018 8(1)1-6
     doi.org/10.1002/wcms.1327
  3. Neese,F.; Wennmohs,F.; Becker,U.; Riplinger,C.
     The ORCA quantum chemistry program package
     J. Chem. Phys., 2020 152 Art. No. L224108
     doi.org/10.1063/5.0004608

List of optional additional citations

  1. Neese,F.
     Approximate second-order SCF convergence for spin unrestricted wavefunctions
     Chem. Phys. Lett., 2000 325(1-3)93-98
     doi.org/10.1016/s0009-2614(00)00662-x

Timings for individual modules:

Sum of individual times          ...     1018.454 sec (=  16.974 min)
Startup calculation              ...      227.163 sec (=   3.786 min)  22.3 %
SCF iterations                   ...      245.489 sec (=   4.091 min)  24.1 %
Property calculations            ...        0.106 sec (=   0.002 min)   0.0 %
SCF Gradient evaluation          ...      543.041 sec (=   9.051 min)  53.3 %
Geometry relaxation              ...        2.655 sec (=   0.044 min)   0.3 %
                             ****ORCA TERMINATED NORMALLY****
TOTAL RUN TIME: 0 days 0 hours 17 minutes 5 seconds 182 msec
