
                                 *****************
                                 * O   R   C   A *
                                 *****************

                                            #,                                       
                                            ###                                      
                                            ####                                     
                                            #####                                    
                                            ######                                   
                                           ########,                                 
                                     ,,################,,,,,                         
                               ,,#################################,,                 
                          ,,##########################################,,             
                       ,#########################################, ''#####,          
                    ,#############################################,,   '####,        
                  ,##################################################,,,,####,       
                ,###########''''           ''''###############################       
              ,#####''   ,,,,##########,,,,          '''####'''          '####       
            ,##' ,,,,###########################,,,                        '##       
           ' ,,###''''                  '''############,,,                           
         ,,##''                                '''############,,,,        ,,,,,,###''
      ,#''                                            '''#######################'''  
     '                                                          ''''####''''         
             ,#######,   #######,   ,#######,      ##                                
            ,#'     '#,  ##    ##  ,#'     '#,    #''#        ,####,   ,####,        
            ##       ##  ##   ,#'  ##            #'  '#       #'       #'  '#        
            ##       ##  #######   ##           ,######,      #####,   #    #        
            '#,     ,#'  ##    ##  '#,     ,#' ,#      #,     #,   #   #,  ,#        
             '#######'   ##     ##  '#######'  #'      '#     '####' # '####'        



                #########################################################
                #                        -***-                          #
                #          Department of theory and spectroscopy        #
                #                                                       #
                #                      Frank Neese                      #
                #                                                       #
                #     Directorship, Architecture, Infrastructure        #
                #                    SHARK, DRIVERS                     #
                #        Core code/Algorithms in most modules           #
                #                                                       #
                #        Max Planck Institute fuer Kohlenforschung      #
                #                Kaiser Wilhelm Platz 1                 #
                #                 D-45470 Muelheim/Ruhr                 #
                #                      Germany                          #
                #                                                       #
                #                  All rights reserved                  #
                #                        -***-                          #
                #########################################################


                         Program Version 6.0.0  -   RELEASE   -


 With contributions from (in alphabetic order):
   Daniel Aravena         : Magnetic Suceptibility
   Michael Atanasov       : Ab Initio Ligand Field Theory (pilot matlab implementation)
   Alexander A. Auer      : GIAO ZORA, VPT2 properties, NMR spectrum
   Ute Becker             : All parallelization in ORCA, NUMFREQ, NUMCALC
   Giovanni Bistoni       : ED, misc. LED, open-shell LED, HFLD
   Martin Brehm           : Molecular dynamics
   Dmytro Bykov           : pre 5.0 version of the SCF Hessian
   Marcos Casanova-Páez   : Triplet and SCS-CIS(D). UHF-(DLPNO)-IP/EA/STEOM-CCSD. UHF-CVS-IP/STEOM-CCSD
   Vijay G. Chilkuri      : MRCI spin determinant printing, contributions to CSF-ICE
   Pauline Colinet        : FMM embedding
   Dipayan Datta          : RHF DLPNO-CCSD density
   Achintya Kumar Dutta   : EOM-CC, STEOM-CC
   Nicolas Foglia         : Exact transition moments, OPA infrastructure, MCD improvements
   Dmitry Ganyushin       : Spin-Orbit,Spin-Spin,Magnetic field MRCI
   Miquel Garcia          : C-PCM and meta-GGA Hessian, CCSD/C-PCM, Gaussian charge scheme
   Tiago L. C. Gouveia    : GS-ROHF, GS-ROCIS
   Yang Guo               : DLPNO-NEVPT2, F12-NEVPT2, CIM, IAO-localization
   Andreas Hansen         : Spin unrestricted coupled pair/coupled cluster methods
   Ingolf Harden          : AUTO-CI MPn and infrastructure 
   Benjamin Helmich-Paris : MC-RPA, TRAH-(SCF,CASSCF), AVAS, COSX integrals, SCF dyn. polar.
   Lee Huntington         : MR-EOM, pCC
   Robert Izsak           : Overlap fitted RIJCOSX, COSX-SCS-MP3, EOM
   Riya Kayal             : Wick's Theorem for AUTO-CI, AUTO-CI UHF-CCSDT
   Emily Kempfer          : AUTO-CI, RHF CISDT and CCSDT
   Christian Kollmar      : KDIIS, OOCD, Brueckner-CCSD(T), CCSD density, CASPT2, CASPT2-K, improved NEVPT2
   Axel Koslowski         : Symmetry handling
   Simone Kossmann        : Meta GGA functionals, TD-DFT gradient, OOMP2, (MP2 Hessian; deprecated post 5.0)
   Lucas Lang             : DCDCAS
   Marvin Lechner         : AUTO-CI (C++ implementation), FIC-MRCC
   Spencer Leger          : CASSCF response
   Dagmar Lenk            : GEPOL surface, SMD, ORCA-2-JSON
   Dimitrios Liakos       : Extrapolation schemes; Compound Job, initial MDCI parallelization
   Dimitrios Manganas     : Further ROCIS development; embedding schemes. LFT, Crystal Embedding
   Dimitrios Pantazis     : SARC Basis sets
   Anastasios Papadopoulos: AUTO-CI, single reference methods and gradients
   Taras Petrenko         : pre 6.0 DFT Hessian and TD-DFT gradient, (ASA, deprecated), ECA, 1-Electron XAS/XES, NRVS
   Peter Pinski           : DLPNO-MP2, DLPNO-MP2 Gradient
   Christoph Reimann      : Effective Core Potentials
   Marius Retegan         : Local ZFS, SOC
   Christoph Riplinger    : Optimizer, TS searches, QM/MM, DLPNO-CCSD(T), (RO)-DLPNO pert. Triples
   Michael Roemelt        : Original ROCIS implementation
   Masaaki Saitow         : Open-shell DLPNO-CCSD energy and density
   Barbara Sandhoefer     : DKH picture change effects
   Kantharuban Sivalingam : CASSCF convergence/infrastructure, NEVPT2 and variants, FIC-MRCI
   Bernardo de Souza      : ESD, SOC TD-DFT
   Georgi Stoychev        : AutoAux, RI-MP2 NMR, DLPNO-MP2 response, X2C
   Van Anh Tran           : RI-MP2 g-tensors
   Willem Van den Heuvel  : Paramagnetic NMR
   Zikuan Wang            : NOTCH, Electric field optimization 
   Frank Wennmohs         : Technical directorship and infrastructure
   Hang Xu                : AUTO-CI-Response properties 


 We gratefully acknowledge several colleagues who have allowed us to
 interface, adapt or use parts of their codes:
   Stefan Grimme, W. Hujo, H. Kruse, P. Pracht,  : VdW corrections, initial TS optimization,
                  C. Bannwarth, S. Ehlert,         DFT functionals, gCP, sTDA/sTD-DF
                  L. Wittmann, M. Mueller
   Ed Valeev, F. Pavosevic, A. Kumar             : LibInt (2-el integral package), F12 methods
   Garnet Chan, S. Sharma, J. Yang, R. Olivares  : DMRG
   Ulf Ekstrom                                   : XCFun DFT Library
   Mihaly Kallay                                 : mrcc  (arbitrary order and MRCC methods)
   Frank Weinhold                                : gennbo (NPA and NBO analysis)
   Simon Mueller                                 : openCOSMO-RS
   Christopher J. Cramer and Donald G. Truhlar   : smd solvation model
   Lars Goerigk                                  : TD-DFT with DH, B97 family of functionals
   V. Asgeirsson, H. Jonsson                     : NEB implementation
   FAccTs GmbH                                   : IRC, NEB, NEB-TS, DLPNO-Multilevel, CI-OPT
                                                   MM, QMMM, 2- and 3-layer-ONIOM, Crystal-QMMM,
                                                   LR-CPCM, SF, NACMEs, symmetry and pop. for TD-DFT,
                                                   nearIR, NL-DFT gradient (VV10), updates on ESD,
                                                   ML-optimized integration grids, MBIS, APM,
                                                   GOAT, DOCKER, SOLVATOR, interface openCOSMO-RS
   S Lehtola, MJT Oliveira, MAL Marques          : LibXC Library
   Liviu Ungur et al                             : ANISO software


 Your calculation uses the libint2 library for the computation of 2-el integrals
 For citations please refer to: http://libint.valeyev.net

 Your ORCA version has been built with support for libXC version: 6.2.2
 For citations please refer to: https://libxc.gitlab.io

 This ORCA versions uses:
   CBLAS   interface :  Fast vector & matrix operations
   LAPACKE interface :  Fast linear algebra routines
   Shared memory     :  Shared parallel matrices


Your calculation utilizes the geometrical counterpoise correction gCP
Please cite in your paper:
H.Kruse, S. Grimme J.Chem.Phys., 136, (2012), 154101 
   

Your calculation utilizes the atom-pairwise dispersion correction
with the Becke-Johnson damping scheme (D3BJ)


================================================================================

----- Orbital basis set information -----
Your calculation utilizes the basis: MINIX,
   a combination of small basis sets by S. Grimme (see manual for definitions).

================================================================================
                                        WARNINGS
                       Please study these warnings very carefully!
================================================================================


WARNING: Geometry Optimization
  ===> : Switching off AutoStart
         For restart on a previous wavefunction, please use MOREAD

================================================================================
                                       INPUT FILE
================================================================================
NAME = Thr150_tightOptimization.inp
|  1> ! HF-3c Opt TightSCF
|  2> 
|  3> %geom
|  4> 	optimizehydrogens true
|  5> end
|  6> 
|  7> *xyz 0 1 
|  8> H 94.053101 95.579651 -47.388393
|  9> H 93.333061 96.482246 -50.216503
| 10> H 91.442993 94.847305 -49.949322
| 11> H 93.050354 94.087502 -50.027538
| 12> H 92.223206 94.262146 -48.460743
| 13> H 94.666161 98.048378 -48.742676
| 14> H 91.951332 97.732941 -49.190563
| 15> N 94.934998 97.276001 -48.150002
| 16> C 94.320999 95.968002 -48.370998
| 17> C 95.289001 94.991997 -49.035999
| 18> O 95.830002 95.273003 -50.103001
| 19> C 93.049004 96.089996 -49.240002
| 20> O 92.116997 96.985001 -48.612000
| 21> C 92.394997 94.723999 -49.432999
| 22> **                         ****END OF INPUT****
================================================================================

                       *****************************
                       * Geometry Optimization Run *
                       *****************************

Geometry optimization settings:
Update method            Update   .... BFGS
Choice of coordinates    CoordSys .... (2022) Redundant Internals
Initial Hessian          InHess   .... Almloef's Model
Max. no of cycles        MaxIter  .... 50

Convergence Tolerances:
Energy Change            TolE     ....  5.0000e-06 Eh
Max. Gradient            TolMAXG  ....  3.0000e-04 Eh/bohr
RMS Gradient             TolRMSG  ....  1.0000e-04 Eh/bohr
Max. Displacement        TolMAXD  ....  4.0000e-03 bohr
RMS Displacement         TolRMSD  ....  2.0000e-03 bohr
Strict Convergence                .... False

------------------------------------------------------------------------------
                        ORCA OPTIMIZATION COORDINATE SETUP
------------------------------------------------------------------------------

The optimization will be done in redundant internal coordinates (2022)
Making redundant internal coordinates   ...  (2022 redundants) done
Evaluating the initial hessian          ...  (Almloef) done
Evaluating the coordinates              ...  done
Calculating the B-matrix                .... done
Calculating the G-matrix                .... done
Diagonalizing the G-matrix              .... done
The first mode is                       ....   19
The number of degrees of freedom        ....   36
Storing new coordinates                 .... done

    -----------------------------------------------------------------
                    Redundant Internal Coordinates


    -----------------------------------------------------------------
         Definition                    Initial Value    Approx d2E/dq
    -----------------------------------------------------------------
      1. B(N   7,H   5)                  1.0100         0.432706   
      2. B(C   8,H   0)                  1.0900         0.360101   
      3. B(C   8,N   7)                  1.4617         0.429945 C 
      4. B(C   9,C   8)                  1.5270         0.377664 C 
      5. B(O  10,C   9)                  1.2289         1.011431 C 
      6. B(C  11,H   1)                  1.0900         0.360098   
      7. B(C  11,C   8)                  1.5453         0.353127 C 
      8. B(O  12,H   6)                  0.9600         0.519962   
      9. B(O  12,C  11)                  1.4367         0.471407 C 
     10. B(C  13,H   2)                  1.0900         0.360097   
     11. B(C  13,H   3)                  1.0900         0.360101   
     12. B(C  13,H   4)                  1.0900         0.360099   
     13. B(C  13,C  11)                  1.5267         0.378082 C 
     14. A(H   5,N   7,C   8)          118.9321         0.337226   
     15. A(N   7,C   8,C  11)          111.1081         0.366332 C 
     16. A(H   0,C   8,C   9)          108.7028         0.324900   
     17. A(C   9,C   8,C  11)          109.1081         0.360547 C 
     18. A(H   0,C   8,C  11)          109.4363         0.321340   
     19. A(H   0,C   8,N   7)          106.6042         0.329926   
     20. A(N   7,C   8,C   9)          111.8077         0.370581 C 
     21. A(C   8,C   9,O  10)          120.7330         0.430738 C 
     22. A(H   1,C  11,C  13)          108.6847         0.324958   
     23. A(C   8,C  11,C  13)          110.6744         0.360615 C 
     24. A(O  12,C  11,C  13)          109.5569         0.376582 C 
     25. A(H   1,C  11,O  12)          109.6625         0.334998   
     26. A(H   1,C  11,C   8)          108.5232         0.321340   
     27. A(C   8,C  11,O  12)          109.7153         0.372172 C 
     28. A(H   6,O  12,C  11)          109.5036         0.353213   
     29. A(H   2,C  13,C  11)          109.4389         0.324958   
     30. A(H   3,C  13,C  11)          109.5032         0.324959   
     31. A(H   4,C  13,C  11)          109.5036         0.324958   
     32. A(H   2,C  13,H   3)          109.4394         0.290839   
     33. A(H   2,C  13,H   4)          109.4389         0.290839   
     34. A(H   3,C  13,H   4)          109.5033         0.290839   
     35. D(H   0,C   8,N   7,H   5)   -135.4597         0.014561   
     36. D(C   9,C   8,N   7,H   5)    105.8733         0.014561   
     37. D(C  11,C   8,N   7,H   5)    -16.2948         0.014561   
     38. D(O  10,C   9,C   8,H   0)   -173.2523         0.009882   
     39. D(O  10,C   9,C   8,N   7)    -55.8393         0.009882 C 
     40. D(O  10,C   9,C   8,C  11)     67.4677         0.009882 C 
     41. D(H   1,C  11,C   8,H   0)    179.8088         0.010033   
     42. D(O  12,C  11,C   8,H   0)     60.0054         0.010033   
     43. D(H   1,C  11,C   8,N   7)     62.3545         0.010033   
     44. D(O  12,C  11,C   8,N   7)    -57.4489         0.010033 C 
     45. D(O  12,C  11,C   8,C   9)    178.8288         0.010033 C 
     46. D(H   1,C  11,C   8,C   9)    -61.3678         0.010033   
     47. D(H   6,O  12,C  11,H   1)     -0.1324         0.017518   
     48. D(H   6,O  12,C  11,C   8)    118.9726         0.017518   
     49. D(H   6,O  12,C  11,C  13)   -119.3388         0.017518   
     50. D(H   2,C  13,C  11,H   1)    -67.3450         0.011399   
     51. D(H   2,C  13,C  11,C   8)    173.5728         0.011399   
     52. D(H   2,C  13,C  11,O  12)     52.4622         0.011399   
     53. D(H   3,C  13,C  11,H   1)     52.6159         0.011399   
     54. D(H   3,C  13,C  11,C   8)    -66.4663         0.011399   
     55. D(H   3,C  13,C  11,O  12)    172.4230         0.011399   
    -----------------------------------------------------------------

Number of atoms                         .... 14
Number of degrees of freedom            .... 55


         *************************************************************
         *                GEOMETRY OPTIMIZATION CYCLE   1            *
         *************************************************************
---------------------------------
CARTESIAN COORDINATES (ANGSTROEM)
---------------------------------
  H     94.053101   95.579651  -47.388393
  H     93.333061   96.482246  -50.216503
  H     91.442993   94.847305  -49.949322
  H     93.050354   94.087502  -50.027538
  H     92.223206   94.262146  -48.460743
  H     94.666161   98.048378  -48.742676
  H     91.951332   97.732941  -49.190563
  N     94.934998   97.276001  -48.150002
  C     94.320999   95.968002  -48.370998
  C     95.289001   94.991997  -49.035999
  O     95.830002   95.273003  -50.103001
  C     93.049004   96.089996  -49.240002
  O     92.116997   96.985001  -48.612000
  C     92.394997   94.723999  -49.432999

----------------------------
CARTESIAN COORDINATES (A.U.)
----------------------------
  NO LB      ZA    FRAG     MASS         X           Y           Z
   0 H     1.0000    0     1.008  177.734603  180.619364  -89.551085
   1 H     1.0000    0     1.008  176.373925  182.325022  -94.895438
   2 H     1.0000    0     1.008  172.802214  179.235431  -94.390539
   3 H     1.0000    0     1.008  175.839686  177.799611  -94.538346
   4 H     1.0000    0     1.008  174.276603  178.129641  -91.577533
   5 H     1.0000    0     1.008  178.893118  185.284582  -92.110309
   6 H     1.0000    0     1.008  173.762835  184.688493  -92.956692
   7 N     7.0000    0    14.007  179.401147  183.825001  -90.990317
   8 C     6.0000    0    12.011  178.240857  181.353241  -91.407939
   9 C     6.0000    0    12.011  180.070115  179.508859  -92.664609
  10 O     8.0000    0    15.999  181.092459  180.039884  -94.680950
  11 C     6.0000    0    12.011  175.837135  181.583777  -93.050119
  12 O     8.0000    0    15.999  174.075897  183.275091  -91.863367
  13 C     6.0000    0    12.011  174.601240  179.002416  -93.414830

--------------------------------
INTERNAL COORDINATES (ANGSTROEM)
--------------------------------
 H      0   0   0     0.000000000000     0.00000000     0.00000000
 H      1   0   0     3.054724456923     0.00000000     0.00000000
 H      2   1   0     2.513319479268    83.49050013     0.00000000
 H      3   2   1     1.779614487968    66.03562306   292.29289210
 H      3   2   1     1.779609738086    88.45959840   349.95038059
 H      2   1   3     2.530235379832    61.27703283   155.27436587
 H      2   1   3     2.127431760613    83.12695641    81.62372070
 N      6   2   1     1.010001006422    90.49865921    19.26995621
 C      1   2   3     1.089999276894    28.12300926   151.72447257
 C      9   1   2     1.527036332911   108.70277528   240.78835425
 O     10   9   1     1.228877423522   120.73301985   186.74765537
 C      2   1   3     1.090001213187    29.03610224    27.89742505
 O      7   2   1     0.959997021242    73.77117410   334.76628513
 C      4   3   2     1.089999014210    35.28035156    67.57975460

---------------------------
INTERNAL COORDINATES (A.U.)
---------------------------
 H      0   0   0     0.000000000000     0.00000000     0.00000000
 H      1   0   0     5.772592638176     0.00000000     0.00000000
 H      2   1   0     4.749485502865    83.49050013     0.00000000
 H      3   2   1     3.362984006218    66.03562306   292.29289210
 H      3   2   1     3.362975030242    88.45959840   349.95038059
 H      2   1   3     4.781451922240    61.27703283   155.27436587
 H      2   1   3     4.020263396165    83.12695641    81.62372070
 N      6   2   1     1.908625297123    90.49865921    19.26995621
 C      1   2   3     2.059800119502    28.12300926   151.72447257
 C      9   1   2     2.885680465749   108.70277528   240.78835425
 O     10   9   1     2.322241782615   120.73301985   186.74765537
 C      2   1   3     2.059803778566    29.03610224    27.89742505
 O      7   2   1     1.814131459528    73.77117410   334.76628513
 C      4   3   2     2.059799623101    35.28035156    67.57975460

---------------------
BASIS SET INFORMATION
---------------------
There are 4 groups of distinct atoms

 Group   1 Type H   : 3s contracted to 1s pattern {3}
 Group   2 Type N   : 6s3p contracted to 2s1p pattern {33/3}
 Group   3 Type C   : 6s3p contracted to 2s1p pattern {33/3}
 Group   4 Type O   : 6s3p contracted to 2s1p pattern {33/3}

Atom   0H    basis set group =>   1
Atom   1H    basis set group =>   1
Atom   2H    basis set group =>   1
Atom   3H    basis set group =>   1
Atom   4H    basis set group =>   1
Atom   5H    basis set group =>   1
Atom   6H    basis set group =>   1
Atom   7N    basis set group =>   2
Atom   8C    basis set group =>   3
Atom   9C    basis set group =>   3
Atom  10O    basis set group =>   4
Atom  11C    basis set group =>   3
Atom  12O    basis set group =>   4
Atom  13C    basis set group =>   3
------------------------------------------------------------------------------
                             ORCA STARTUP CALCULATIONS
------------------------------------------------------------------------------
------------------------------------------------------------------------------
                   ___                                                        
                  /   \      - P O W E R E D   B Y -                         
                 /     \                                                     
                 |  |  |   _    _      __       _____    __    __             
                 |  |  |  | |  | |    /  \     |  _  \  |  |  /  |          
                  \  \/   | |  | |   /    \    | | | |  |  | /  /          
                 / \  \   | |__| |  /  /\  \   | |_| |  |  |/  /          
                |  |  |   |  __  | /  /__\  \  |    /   |      \           
                |  |  |   | |  | | |   __   |  |    \   |  |\   \          
                \     /   | |  | | |  |  |  |  | |\  \  |  | \   \       
                 \___/    |_|  |_| |__|  |__|  |_| \__\ |__|  \__/        
                                                                              
                      - O R C A' S   B I G   F R I E N D -                    
                                      &                                       
                       - I N T E G R A L  F E E D E R -                       
                                                                              
 v1 FN, 2020, v2 2021, v3 2022-2024                                           
------------------------------------------------------------------------------


----------------------
SHARK INTEGRAL PACKAGE
----------------------

Number of atoms                             ...     14
Number of basis functions                   ...     42
Number of shells                            ...     28
Maximum angular momentum                    ...      1
Integral batch strategy                     ... SHARK/LIBINT Hybrid
RI-J (if used) integral strategy            ... SPLIT-RIJ (Revised 2003 algorithm where possible)
Printlevel                                  ...      1
Contraction scheme used                     ... SEGMENTED contraction
Prescreening option                         ... SCHWARTZ
   Thresh                                   ... 2.500e-11
   Tcut                                     ... 2.500e-12
   Tpresel                                  ... 2.500e-12 
Coulomb Range Separation                    ... NOT USED
Exchange Range Separation                   ... NOT USED
Multipole approximations                    ... NOT USED
Finite Nucleus Model                        ... NOT USED
CABS basis                                  ... NOT available
Auxiliary Coulomb fitting basis             ... NOT available
Auxiliary J/K fitting basis                 ... NOT available
Auxiliary Correlation fitting basis         ... NOT available
Auxiliary 'external' fitting basis          ... NOT available

Checking pre-screening integrals            ... done (  0.0 sec) Dimension = 28
Check shell pair data                       ... done (  0.0 sec)
Shell pair information
Shell pair cut-off parameter TPreSel        ...   2.5e-12
Total number of shell pairs                 ...       406
Shell pairs after pre-screening             ...       391
Total number of primitive shell pairs       ...      3654
Primitive shell pairs kept                  ...      2660
          la=0 lb=0:    216 shell pairs
          la=1 lb=0:    147 shell pairs
          la=1 lb=1:     28 shell pairs

Calculating one electron integrals          ... done (  0.0 sec)
Calculating Nuclear repulsion               ... done (  0.0 sec) ENN=    297.538381141804 Eh
Calculating 4-index integrals               ...     -> SHARK/Ints2Disk: Thresh =     2.500000e-11 TCut=    2.500000e-12 
    -> calling libint FockFlag=2 Lmax_loc=1
    ->Total LIBINT loop time =    0.000 sec
    -> L=0 0 0 0:     0.020 sec done=     22465 (=100.0%) skipped=         0 
    -> L=1 0 0 0:     0.035 sec done=     30892 (=100.0%) skipped=         0 
    -> L=1 0 1 0:     0.024 sec done=     10634 (=100.0%) skipped=         0 
    -> L=1 1 0 0:     0.014 sec done=      6010 (=100.0%) skipped=         0 
    -> L=1 1 1 0:     0.020 sec done=      4085 (=100.0%) skipped=         0 
    -> L=1 1 1 1:     0.007 sec done=       406 (=100.0%) skipped=         0 
    ->Total SHARK integral loop time =    0.120 sec
    -> Total Integral generation matrix time =    0.126 sec
    -> Number of small integrals   =     13861
    -> Number of medium integrals  =     44792
    -> Number of large integrals   =    322663
    -> Number of MB stored         =         4 MB

done (  0.1 sec)

Diagonalization of the overlap matrix:
Smallest eigenvalue                        ... 2.103e-01
Time for diagonalization                   ...    0.000 sec
Threshold for overlap eigenvalues          ... 1.000e-07
Number of eigenvalues below threshold      ... 0
Time for construction of square roots      ...    0.001 sec
Total time needed                          ...    0.004 sec

-------------------
DFT GRID GENERATION
-------------------

General Integration Accuracy     IntAcc      ... 4.388
Radial Grid Type                 RadialGrid  ... OptM3 with GC (2021)
Angular Grid (max. ang.)         AngularGrid ... 4 (Lebedev-302)
Angular grid pruning method      GridPruning ... 4 (adaptive)
Weight generation scheme         WeightScheme... mBecke (2022)
Basis function cutoff            BFCut       ... 1.0000e-11
Integration weight cutoff        WCut        ... 1.0000e-14
Partially contracted basis set               ... off
Rotationally invariant grid construction     ... off
Angular grids for H and He will be reduced by one unit

Total number of grid points                  ...    64895
Total number of batches                      ...     1021
Average number of points per batch           ...       63
Average number of grid points per atom       ...     4635
Initializing property integral containers    ... done (  0.0 sec)

SHARK setup successfully completed in   0.7 seconds

Maximum memory used throughout the entire STARTUP-calculation: 30.2 MB
-------------------------------------------------------------------------------
                                 ORCA GUESS
                   Start orbitals & Density for SCF / CASSCF
-------------------------------------------------------------------------------

------------
SCF SETTINGS
------------
Hamiltonian:
 Ab initio Hamiltonian  Method          .... Hartree-Fock(GTOs)


General Settings:
 Integral files         IntName         .... Thr150_tightOptimization
 Hartree-Fock type      HFTyp           .... RHF
 Total Charge           Charge          ....    0
 Multiplicity           Mult            ....    1
 Number of Electrons    NEL             ....   54
 Basis Dimension        Dim             ....   42
 Nuclear Repulsion      ENuc            ....    297.5383811418 Eh

Convergence Acceleration:
 AO-DIIS                CNVDIIS         .... on
   Start iteration      DIISMaxIt       ....    12
   Startup error        DIISStart       ....  0.200000
   # of expansion vecs  DIISMaxEq       ....     5
   Bias factor          DIISBfac        ....   1.050
   Max. coefficient     DIISMaxC        ....  10.000
 MO-DIIS                CNVKDIIS        .... off
 Trust-Rad. Augm. Hess. CNVTRAH         .... auto
   Auto Start mean grad. ratio tolernc. ....  1.125000
   Auto Start start iteration           ....    50
   Auto Start num. interpolation iter.  ....    10
   Max. Number of Micro iterations      ....    24
   Max. Number of Macro iterations      .... Maxiter - #DIIS iter
   Number of Davidson start vectors     ....     2
   Converg. threshold    (grad. norm)   ....   1.000e-05
   Grad. Scal. Fac. for Micro threshold ....   0.100
   Minimum threshold for Micro iter.    ....   1.000e-02
   NR start threshold (gradient norm)   ....   1.000e-04
   Initial trust radius                 ....   0.400
   Minimum AH scaling param. (alpha)    ....   1.000
   Maximum AH scaling param. (alpha)    .... 1000.000
   Quad. conv. algorithm                .... NR
   White noise on init. David. guess    .... on
   Maximum white noise                  ....   0.010
   Pseudo random numbers                .... off
   Inactive MOs                         .... canonical
   Orbital update algorithm             .... Taylor
   Preconditioner                       .... Diag
   Full preconditioner red. dimension   ....   250
 SOSCF                  CNVSOSCF        .... on
   Start iteration      SOSCFMaxIt      ....   150
   Startup grad/error   SOSCFStart      ....  0.003300
   Hessian update       SOSCFHessUp     .... L-BFGS
 Level Shifting         CNVShift        .... on
   Level shift para.    LevelShift      ....    0.2500
   Turn off err/grad.   ShiftErr        ....    0.0010
 Zerner damping         CNVZerner       .... off
 Static damping         CNVDamp         .... on
   Fraction old density DampFac         ....    0.7000
   Max. Damping (<1)    DampMax         ....    0.9800
   Min. Damping (>=0)   DampMin         ....    0.0000
   Turn off err/grad.   DampErr         ....    0.1000

SCF Procedure:
 Maximum # iterations   MaxIter         ....   125
 SCF integral mode      SCFMode         .... Conventional
 Integral Threshold     Thresh          ....  2.500e-11 Eh
 Primitive CutOff       TCut            ....  2.500e-12 Eh
 Integral Buffer length BufferLength    .... 1048576
 Integral index format  IndFormat       ....     0
 Integral value format  ValFormat       ....     0
 Integral Storage       Thresh          ....  2.500e-11 Eh

Convergence Tolerance:
 Convergence Check Mode ConvCheckMode   .... Total+1el-Energy
 Convergence forced     ConvForced      .... 0
 Energy Change          TolE            ....  1.000e-08 Eh
 1-El. energy change                    ....  1.000e-05 Eh
 Orbital Gradient       TolG            ....  1.000e-05
 Orbital Rotation angle TolX            ....  1.000e-05
 DIIS Error             TolErr          ....  5.000e-07

--------------------------------
INITIAL GUESS: MINIMAL BASIS EHT
--------------------------------
The minimal basis has 42 functions
EHT matrix was diagonalized
Basis set overlap was calculated now projecting the orbitals
Using GuessMode=FMatrix for the initial guess
C*T matrix was formed
Effective Fockian was calculated
Effective Fockian was diagonalized
Initial density was built
                      ------------------
                      INITIAL GUESS DONE
                      ------------------
             **** ENERGY FILE WAS UPDATED (Thr150_tightOptimization.en.tmp) ****
Finished Guess after   0.1 sec
Maximum memory used throughout the entire GUESS-calculation: 2.9 MB

-------------------------------------------------------------------------------------------
                                      ORCA LEAN-SCF
                              memory conserving SCF solver
-------------------------------------------------------------------------------------------


 InCore treatment chosen for four center integrals:
   Memory dedicated               ...    1024 MB
   Memory needed                  ...      4 MB
   Number of tiny    integrals    ...   13861
   Number of small   integrals    ...   44792
   Number of regular integrals    ...  322663

----------------------------------------D-I-I-S--------------------------------------------
Iteration    Energy (Eh)           Delta-E    RMSDP     MaxDP     DIISErr   Damp  Time(sec)
-------------------------------------------------------------------------------------------
    1    -356.1757924677253868     0.00e+00  2.55e-02  2.97e-01  2.96e-01  0.700   0.1
    2    -356.4799317054134917    -3.04e-01  1.97e-02  2.38e-01  1.59e-01  0.700   0.1
                               ***Turning on AO-DIIS***
    3    -356.6382944040864231    -1.58e-01  9.42e-03  6.81e-02  1.09e-01  0.700   0.1
    4    -356.7415842424450148    -1.03e-01  6.83e-03  6.08e-02  7.68e-02  0.700   0.1
    5    -356.8161558203295272    -7.46e-02  1.85e-02  1.61e-01  5.39e-02  0.000   0.1
    6    -357.0113881717544473    -1.95e-01  3.75e-03  4.17e-02  1.11e-02  0.000   0.1
    7    -357.0141367494279621    -2.75e-03  1.77e-03  1.76e-02  7.22e-03  0.000   0.1
    8    -357.0150851558070144    -9.48e-04  2.28e-03  2.65e-02  6.23e-03  0.000   0.1
    9    -357.0159070117292686    -8.22e-04  1.58e-03  2.09e-02  5.11e-03  0.000   0.1
   10    -357.0162951183777977    -3.88e-04  1.28e-03  1.66e-02  4.06e-03  0.000   0.1
                              *** Initializing SOSCF ***
---------------------------------------S-O-S-C-F--------------------------------------
Iteration    Energy (Eh)           Delta-E    RMSDP     MaxDP     MaxGrad    Time(sec)
--------------------------------------------------------------------------------------
   11    -357.0165224524837413    -2.27e-04  1.27e-03  1.67e-02  3.07e-03     0.1
   12    -357.0166753027739333    -1.53e-04  4.93e-04  7.33e-03  1.99e-03     0.1
   13    -357.0167143132653109    -3.90e-05  1.32e-03  1.75e-02  1.52e-03     0.1
   14    -357.0167721372449705    -5.78e-05  3.24e-04  4.44e-03  3.07e-04     0.1
   15    -357.0167788619721705    -6.72e-06  1.83e-04  2.36e-03  1.70e-04     0.1
   16    -357.0167808160964569    -1.95e-06  3.86e-05  2.83e-04  6.18e-05     0.1
   17    -357.0167810190146156    -2.03e-07  3.00e-05  2.51e-04  3.46e-05     0.1
   18    -357.0167810900883296    -7.11e-08  1.27e-05  8.72e-05  2.26e-05     0.1
   19    -357.0167811043855863    -1.43e-08  6.71e-06  4.56e-05  1.69e-05     0.1
   20    -357.0167811095333263    -5.15e-09  3.19e-06  2.37e-05  6.14e-06     0.1
                 **** Energy Check signals convergence ****

               *****************************************************
               *                     SUCCESS                       *
               *           SCF CONVERGED AFTER  20 CYCLES          *
               *****************************************************

             **** ENERGY FILE WAS UPDATED (Thr150_tightOptimization.en.tmp) ****

----------------
TOTAL SCF ENERGY
----------------

Total Energy       :       -357.01678110953333 Eh           -9714.92051 eV

Components:
Nuclear Repulsion  :        297.53838114180371 Eh            8096.43097 eV
Electronic Energy  :       -654.55516225133704 Eh          -17811.35148 eV
One Electron Energy:      -1077.76917461696826 Eh          -29327.59023 eV
Two Electron Energy:        423.21401236563122 Eh           11516.23875 eV

Virial components:
Potential Energy   :       -714.46734594664110 Eh          -19441.64488 eV
Kinetic Energy     :        357.45056483710778 Eh            9726.72437 eV
Virial Ratio       :          1.99878645113410

---------------
SCF CONVERGENCE
---------------

  Last Energy change         ...    5.1477e-09  Tolerance :   1.0000e-08
  Last MAX-Density change    ...    2.3732e-05  Tolerance :   1.0000e-07
  Last RMS-Density change    ...    3.1913e-06  Tolerance :   5.0000e-09
  Last DIIS Error            ...    3.0651e-03  Tolerance :   5.0000e-07
  Last Orbital Gradient      ...    6.1382e-06  Tolerance :   1.0000e-05
  Last Orbital Rotation      ...    1.5834e-05  Tolerance :   1.0000e-05


----------------
ORBITAL ENERGIES
----------------

  NO   OCC          E(Eh)            E(eV) 
   0   2.0000     -20.423282      -555.7458 
   1   2.0000     -20.327444      -553.1379 
   2   2.0000     -15.382331      -418.5745 
   3   2.0000     -11.282959      -307.0249 
   4   2.0000     -11.267842      -306.6136 
   5   2.0000     -11.252337      -306.1917 
   6   2.0000     -11.170669      -303.9694 
   7   2.0000      -1.433611       -39.0105 
   8   2.0000      -1.362445       -37.0740 
   9   2.0000      -1.173645       -31.9365 
  10   2.0000      -1.051552       -28.6142 
  11   2.0000      -0.937398       -25.5079 
  12   2.0000      -0.850778       -23.1508 
  13   2.0000      -0.760700       -20.6997 
  14   2.0000      -0.698798       -19.0153 
  15   2.0000      -0.665823       -18.1180 
  16   2.0000      -0.626592       -17.0504 
  17   2.0000      -0.625857       -17.0304 
  18   2.0000      -0.574843       -15.6423 
  19   2.0000      -0.571672       -15.5560 
  20   2.0000      -0.553856       -15.0712 
  21   2.0000      -0.540984       -14.7209 
  22   2.0000      -0.527250       -14.3472 
  23   2.0000      -0.482893       -13.1402 
  24   2.0000      -0.459864       -12.5135 
  25   2.0000      -0.392130       -10.6704 
  26   2.0000      -0.273021        -7.4293 
  27   0.0000       0.034558         0.9404 
  28   0.0000       0.168947         4.5973 
  29   0.0000       0.459387        12.5006 
  30   0.0000       0.520447        14.1621 
  31   0.0000       0.531377        14.4595 
  32   0.0000       0.592995        16.1362 
  33   0.0000       0.625951        17.0330 
  34   0.0000       0.635699        17.2983 
  35   0.0000       0.658784        17.9264 
  36   0.0000       0.675057        18.3692 
  37   0.0000       0.721034        19.6203 
*Only the first 10 virtual orbitals were printed.

                    ********************************
                    * MULLIKEN POPULATION ANALYSIS *
                    ********************************

-----------------------
MULLIKEN ATOMIC CHARGES
-----------------------
   0 H :    0.169235
   1 H :    0.133035
   2 H :    0.139508
   3 H :    0.131974
   4 H :    0.140830
   5 H :    0.205472
   6 H :    0.307013
   7 N :   -0.297786
   8 C :   -0.076351
   9 C :    0.298264
  10 O :   -0.349703
  11 C :    0.065565
  12 O :   -0.500242
  13 C :   -0.366813
Sum of atomic charges:   -0.0000000

--------------------------------
MULLIKEN REDUCED ORBITAL CHARGES
--------------------------------
  0 H s       :     0.830765  s :     0.830765

  1 H s       :     0.866965  s :     0.866965

  2 H s       :     0.860492  s :     0.860492

  3 H s       :     0.868026  s :     0.868026

  4 H s       :     0.859170  s :     0.859170

  5 H s       :     0.794528  s :     0.794528

  6 H s       :     0.692987  s :     0.692987

  7 N s       :     3.653826  s :     3.653826
      pz      :     1.301252  p :     3.643960
      px      :     1.398816
      py      :     0.943892

  8 C s       :     3.133911  s :     3.133911
      pz      :     1.089234  p :     2.942440
      px      :     0.972386
      py      :     0.880820

  9 C s       :     3.388899  s :     3.388899
      pz      :     0.797066  p :     2.312837
      px      :     0.695980
      py      :     0.819791

 10 O s       :     3.845099  s :     3.845099
      pz      :     1.417903  p :     4.504604
      px      :     1.434072
      py      :     1.652628

 11 C s       :     3.092915  s :     3.092915
      pz      :     0.994615  p :     2.841520
      px      :     0.888552
      py      :     0.958353

 12 O s       :     3.789597  s :     3.789597
      pz      :     1.658424  p :     4.710644
      px      :     1.676353
      py      :     1.375866

 13 C s       :     3.150147  s :     3.150147
      pz      :     1.117680  p :     3.216666
      px      :     1.092948
      py      :     1.006039



                     *******************************
                     * LOEWDIN POPULATION ANALYSIS *
                     *******************************

----------------------
LOEWDIN ATOMIC CHARGES
----------------------
   0 H :    0.103656
   1 H :    0.075451
   2 H :    0.091854
   3 H :    0.087062
   4 H :    0.092246
   5 H :    0.138782
   6 H :    0.224917
   7 N :   -0.215627
   8 C :   -0.022349
   9 C :    0.183898
  10 O :   -0.236469
  11 C :    0.091025
  12 O :   -0.372373
  13 C :   -0.242073

-------------------------------
LOEWDIN REDUCED ORBITAL CHARGES
-------------------------------
  0 H s       :     0.896344  s :     0.896344

  1 H s       :     0.924549  s :     0.924549

  2 H s       :     0.908146  s :     0.908146

  3 H s       :     0.912938  s :     0.912938

  4 H s       :     0.907754  s :     0.907754

  5 H s       :     0.861218  s :     0.861218

  6 H s       :     0.775083  s :     0.775083

  7 N s       :     3.519580  s :     3.519580
      pz      :     1.310284  p :     3.696047
      px      :     1.406676
      py      :     0.979088

  8 C s       :     2.997577  s :     2.997577
      pz      :     1.088519  p :     3.024772
      px      :     1.005864
      py      :     0.930389

  9 C s       :     3.343288  s :     3.343288
      pz      :     0.880823  p :     2.472814
      px      :     0.732509
      py      :     0.859483

 10 O s       :     3.716302  s :     3.716302
      pz      :     1.440148  p :     4.520167
      px      :     1.432626
      py      :     1.647393

 11 C s       :     2.969278  s :     2.969278
      pz      :     1.012120  p :     2.939698
      px      :     0.935534
      py      :     0.992044

 12 O s       :     3.642034  s :     3.642034
      pz      :     1.659572  p :     4.730339
      px      :     1.685996
      py      :     1.384770

 13 C s       :     2.983496  s :     2.983496
      pz      :     1.115589  p :     3.258577
      px      :     1.099067
      py      :     1.043920



                      *****************************
                      * MAYER POPULATION ANALYSIS *
                      *****************************

  NA   - Mulliken gross atomic population
  ZA   - Total nuclear charge
  QA   - Mulliken gross atomic charge
  VA   - Mayer's total valence
  BVA  - Mayer's bonded valence
  FA   - Mayer's free valence

  ATOM       NA         ZA         QA         VA         BVA        FA
  0 H      0.8308     1.0000     0.1692     0.9714     0.9714    -0.0000
  1 H      0.8670     1.0000     0.1330     0.9823     0.9823     0.0000
  2 H      0.8605     1.0000     0.1395     0.9805     0.9805    -0.0000
  3 H      0.8680     1.0000     0.1320     0.9826     0.9826    -0.0000
  4 H      0.8592     1.0000     0.1408     0.9802     0.9802    -0.0000
  5 H      0.7945     1.0000     0.2055     0.9578     0.9578    -0.0000
  6 H      0.6930     1.0000     0.3070     0.9057     0.9057    -0.0000
  7 N      7.2978     7.0000    -0.2978     2.8924     2.8924     0.0000
  8 C      6.0764     6.0000    -0.0764     3.9331     3.9331     0.0000
  9 C      5.7017     6.0000     0.2983     3.2885     3.2885     0.0000
 10 O      8.3497     8.0000    -0.3497     2.3139     2.3139    -0.0000
 11 C      5.9344     6.0000     0.0656     3.9106     3.9106    -0.0000
 12 O      8.5002     8.0000    -0.5002     1.8992     1.8992    -0.0000
 13 C      6.3668     6.0000    -0.3668     3.9402     3.9402     0.0000

  Mayer bond orders larger than 0.100000
B(  0-H ,  8-C ) :   0.9259 B(  1-H , 11-C ) :   0.9533 B(  2-H , 13-C ) :   0.9703 
B(  3-H , 13-C ) :   0.9705 B(  4-H , 13-C ) :   0.9702 B(  5-H ,  7-N ) :   0.9356 
B(  6-H , 12-O ) :   0.8862 B(  7-N ,  8-C ) :   1.2745 B(  7-N ,  9-C ) :   0.4422 
B(  7-N , 10-O ) :   0.2010 B(  8-C ,  9-C ) :   0.7295 B(  8-C , 11-C ) :   0.9509 
B(  9-C , 10-O ) :   2.0745 B( 11-C , 12-O ) :   0.9496 B( 11-C , 13-C ) :   1.0005 


-------
TIMINGS
-------

Total SCF time: 0 days 0 hours 0 min 1 sec 

Total time                  ....       1.621 sec
Sum of individual times     ....       1.569 sec  ( 96.8%)

SCF preparation             ....       0.037 sec  (  2.3%)
Fock matrix formation       ....       0.398 sec  ( 24.6%)
  Startup                   ....       0.039 sec  (  9.8% of F)
  Coulomb+Exchange Fock     ....       0.326 sec  ( 81.9% of F)
Diagonalization             ....       0.000 sec  (  0.0%)
Density matrix formation    ....       0.419 sec  ( 25.8%)
Total Energy calculation    ....       0.180 sec  ( 11.1%)
Population analysis         ....       0.046 sec  (  2.8%)
Orbital Transformation      ....       0.016 sec  (  1.0%)
Orbital Orthonormalization  ....       0.000 sec  (  0.0%)
DIIS solution               ....       0.316 sec  ( 19.5%)
SOSCF solution              ....       0.157 sec  (  9.7%)
Finished LeanSCF after   1.7 sec

Maximum memory used throughout the entire LEANSCF-calculation: 56.2 MB


-------------------------------------------------------------------------------
                          DFT DISPERSION CORRECTION                            
                                                                               
                              DFTD3 V3.1  Rev 1                                
                          USING Becke-Johnson damping                          
-------------------------------------------------------------------------------
Hartree-Fock is recognized
Active option DFTDOPT                   ...         4   

molecular C6(AA) [au] = 1729.584099 


            DFT-D V3
 parameters
 using HF/MINIX parameters
 s6 scaling factor         :     1.0000 
 a1 scaling factor         :     0.4171 
 s8 scaling factor         :     0.8777 
 a2 scaling factor         :     2.9149 
 ad hoc parameters k1-k3   :    16.0000     1.3333    -4.0000 

 Edisp/kcal,au: -33.839054484979  -0.053925960123 
 E6   /kcal   : -19.174022196 
 E8   /kcal   : -14.665032289 
 % E8         :  43.337594719 

-------------------------   ----------------
Dispersion correction           -0.053925960
-------------------------   ----------------

------------------   -----------------
gCP+bas correction        -0.057819017
------------------   -----------------
----------------------------   ----------------
Total correction to HF/MINIX       -0.111744977
----------------------------   ----------------


-------------------------   --------------------
FINAL SINGLE POINT ENERGY      -357.128526086457
-------------------------   --------------------

------------------------------------------------------------------------------
                         ORCA SCF GRADIENT CALCULATION
------------------------------------------------------------------------------

Nuc. rep. gradient        (SHARK) ... done (  0.0 sec)
HCore & Overlap gradient  (SHARK) ... done (  0.0 sec)
Two-electron gradient     (SHARK) ... done (  0.7 sec)
Dispersion correction             ... done (  0.1 sec)

-------------------
DISPERSION GRADIENT
-------------------

   1   H   :    0.000299595   -0.000334707    0.001641689
   2   H   :   -0.000365128    0.000756948   -0.001618899
   3   H   :   -0.000948511   -0.000642362   -0.000497482
   4   H   :   -0.000572130   -0.001294728   -0.000755855
   5   H   :   -0.000874177   -0.001163296    0.000423600
   6   H   :    0.000789380    0.001402165    0.000178001
   7   H   :   -0.000888975    0.000918660    0.000024230
   8   N   :    0.001535535    0.002300981    0.001377543
   9   C   :    0.001343219    0.000109190    0.001531264
  10   C   :    0.002994207   -0.001660815   -0.000215610
  11   O   :    0.001795423   -0.000802854   -0.001179542
  12   C   :   -0.001477623    0.000569961   -0.000615004
  13   O   :   -0.001883269    0.001591143    0.000408965
  14   C   :   -0.001747546   -0.001750285   -0.000702901

Difference to translation invariance:
           :    0.0000000000   -0.0000000000   -0.0000000000

Difference to rotation invariance:
           :   -0.0000000000   -0.0000000000   -0.0000000000

Norm of the Dispersion gradient    ...    0.0079621255
RMS gradient                       ...    0.0012285826
MAX gradient                       ...    0.0029942071
gCP correction                   ... done

------------------
CARTESIAN GRADIENT
------------------

   1   H   :   -0.006193178    0.012099760    0.001326472
   2   H   :   -0.004529237   -0.000523185    0.002739647
   3   H   :   -0.003759007    0.003429221   -0.002364158
   4   H   :    0.005222982    0.000530499   -0.002704474
   5   H   :    0.000827157   -0.000563852    0.005457966
   6   H   :    0.006079438    0.000314833    0.041002048
   7   H   :    0.003153948   -0.014434821    0.010201453
   8   N   :    0.003703131    0.088813266   -0.035892471
   9   C   :    0.053448613   -0.173438616   -0.096380300
  10   C   :   -0.110198530    0.014938885    0.162151259
  11   O   :    0.034197635    0.037668119   -0.091538598
  12   C   :    0.021407782   -0.005942328    0.014924761
  13   O   :   -0.012480062    0.020417321   -0.012674662
  14   C   :    0.009119328    0.016690897    0.003751058

Difference to translation invariance:
           :   -0.0000000003   -0.0000000002    0.0000000001

Difference to rotation invariance:
           :    0.0000040322   -0.0000019921   -0.0000015128

Norm of the Cartesian gradient     ...    0.3243797919
RMS gradient                       ...    0.0500528885
MAX gradient                       ...    0.1734386157

-------
TIMINGS
-------

Total SCF gradient time     ....        0.805 sec

One electron gradient       ....       0.034 sec  (  4.2%)
Two electron gradient       ....       0.666 sec  ( 82.7%)

Maximum memory used throughout the entire SCFGRAD-calculation: 23.7 MB
------------------------------------------------------------------------------
                         ORCA GEOMETRY RELAXATION STEP
------------------------------------------------------------------------------

Reading the OPT-File                    .... done
Getting information on internals        .... done
Copying old internal coords+grads       .... done
Making the new internal coordinates     .... (2022 redundants) done
Validating the new internal coordinates .... (2022 redundants) done
Calculating the B-matrix                .... done
Calculating the G,G- and P matrices     .... done
Transforming gradient to internals      .... done
Projecting the internal gradient        .... done
Number of atoms                         ....  14
Number of internal coordinates          ....  55
Current Energy                          ....  -357.128526086 Eh
Current gradient norm                   ....     0.324379792 Eh/bohr
Maximum allowed component of the step   ....  0.300
Current trust radius                    ....  0.300
Evaluating the initial hessian          ....  (Almloef) done
Projecting the Hessian                  .... done
Forming the augmented Hessian           .... done
Diagonalizing the augmented Hessian     .... done
Last element of RFO vector              ....  0.854925807
Lowest eigenvalues of augmented Hessian:
 -0.021532396  0.011401998  0.017516883  0.026463605  0.089128038
Length of the computed step             ....  0.606778139
Warning: the length of the step is outside the trust region - taking restricted step instead
The input lambda is                     ....     0.010399
   iter:   5  x=   -0.015342  g=  106.054956 f(x)=     1.015766
   iter:  10  x=   -0.065519  g=    1.915784 f(x)=     0.002000
The output lambda is                    ....    -0.065539 (13 iterations)
The final length of the internal step   ....  0.300000000
Converting the step to Cartesian space:
 Initial RMS(Int)=    0.0404519917
Transforming coordinates:
 Iter   0:  RMS(Cart)=    0.0470443406 RMS(Int)=    0.8445966040
 Iter   5:  RMS(Cart)=    0.0000039160 RMS(Int)=    0.0000026217
Imposing constraints:
 Iter   0:  RMS(Cart)=    0.0000161106 RMS(Int)=    0.0000046709
 Iter   5:  RMS(Cart)=    0.0000002857 RMS(Int)=    0.0000003078
 Iter  10:  RMS(Cart)=    0.0000000756 RMS(Int)=    0.0000001044
CONVERGED
done
Storing new coordinates                 .... done

                                .--------------------.
          ----------------------|Geometry convergence|-------------------------
          Item                value                   Tolerance       Converged
          ---------------------------------------------------------------------
          RMS gradient        0.0083647607            0.0001000000      NO
          MAX gradient        0.0465389802            0.0003000000      NO
          RMS step            0.0404519917            0.0020000000      NO
          MAX step            0.1602291460            0.0040000000      NO
          ........................................................
          Max(Bonds)      0.0270      Max(Angles)    6.62
          Max(Dihed)        9.18      Max(Improp)    0.00
          ---------------------------------------------------------------------

The optimization has not yet converged - more geometry cycles are needed


    ---------------------------------------------------------------------------
                         Redundant Internal Coordinates
                            (Angstroem and degrees)

        Definition                    Value    dE/dq     Step     New-Value
    ----------------------------------------------------------------------------
     1. B(N   7,H   5)                1.0100 -0.025438  0.0270    1.0370   
     2. B(C   8,H   0)                1.0900 -0.001593  0.0020    1.0920   
     3. B(C   8,N   7)                1.4617  0.084635  0.0000    1.4617 C 
     4. B(C   9,C   8)                1.5270 -0.112552  0.0000    1.5270 C 
     5. B(O  10,C   9)                1.2289  0.103149 -0.0000    1.2289 C 
     6. B(C  11,H   1)                1.0900 -0.003823  0.0048    1.0948   
     7. B(C  11,C   8)                1.5453 -0.024932  0.0000    1.5453 C 
     8. B(O  12,H   6)                0.9600 -0.017939  0.0162    0.9762   
     9. B(O  12,C  11)                1.4367  0.008696 -0.0000    1.4367 C 
    10. B(C  13,H   2)                1.0900  0.004791 -0.0060    1.0840   
    11. B(C  13,H   3)                1.0900  0.004306 -0.0054    1.0846   
    12. B(C  13,H   4)                1.0900  0.004977 -0.0062    1.0838   
    13. B(C  13,C  11)                1.5267 -0.023383 -0.0000    1.5267 C 
    14. A(H   5,N   7,C   8)          118.93  0.046539   -6.62    112.31   
    15. A(N   7,C   8,C  11)          111.11 -0.027042   -0.00    111.11 C 
    16. A(H   0,C   8,C   9)          108.70 -0.004820   -1.22    107.48   
    17. A(C   9,C   8,C  11)          109.11  0.009933   -0.00    109.11 C 
    18. A(H   0,C   8,C  11)          109.44  0.002785   -0.01    109.43   
    19. A(H   0,C   8,N   7)          106.60 -0.005781    1.22    107.82   
    20. A(N   7,C   8,C   9)          111.81  0.024628   -0.00    111.81 C 
    21. A(C   8,C   9,O  10)          120.73 -0.041192    0.00    120.73 C 
    22. A(H   1,C  11,C  13)          108.68  0.000643    0.33    109.01   
    23. A(C   8,C  11,C  13)          110.67 -0.008302   -0.00    110.67 C 
    24. A(O  12,C  11,C  13)          109.56  0.000648    0.00    109.56 C 
    25. A(H   1,C  11,O  12)          109.66 -0.004737    0.32    109.98   
    26. A(H   1,C  11,C   8)          108.52  0.002050   -0.64    107.88   
    27. A(C   8,C  11,O  12)          109.72  0.009578   -0.00    109.72 C 
    28. A(H   6,O  12,C  11)          109.50 -0.001136    0.16    109.66   
    29. A(H   2,C  13,C  11)          109.44 -0.002283    0.37    109.81   
    30. A(H   3,C  13,C  11)          109.50 -0.005483    0.84    110.34   
    31. A(H   4,C  13,C  11)          109.50 -0.001803    0.27    109.77   
    32. A(H   2,C  13,H   3)          109.44  0.003561   -0.50    108.94   
    33. A(H   2,C  13,H   4)          109.44  0.003902   -0.63    108.81   
    34. A(H   3,C  13,H   4)          109.50  0.002113   -0.34    109.16   
    35. D(H   0,C   8,N   7,H   5)   -135.46  0.018671   -9.18   -144.64   
    36. D(C   9,C   8,N   7,H   5)    105.87  0.014339   -8.45     97.42   
    37. D(C  11,C   8,N   7,H   5)    -16.29  0.003457   -8.45    -24.75   
    38. D(O  10,C   9,C   8,H   0)   -173.25 -0.001780   -0.73   -173.98   
    39. D(O  10,C   9,C   8,N   7)    -55.84  0.002608    0.00    -55.84 C 
    40. D(O  10,C   9,C   8,C  11)     67.47 -0.008100   -0.00     67.47 C 
    41. D(H   1,C  11,C   8,H   0)    179.81 -0.007083    1.49    181.30   
    42. D(O  12,C  11,C   8,H   0)     60.01 -0.008227    1.49     61.49   
    43. D(H   1,C  11,C   8,N   7)     62.35  0.014468    0.00     62.35   
    44. D(O  12,C  11,C   8,N   7)    -57.45  0.013324   -0.00    -57.45 C 
    45. D(O  12,C  11,C   8,C   9)    178.83 -0.006538    0.00    178.83 C 
    46. D(H   1,C  11,C   8,C   9)    -61.37 -0.005394    0.00    -61.37   
    47. D(H   6,O  12,C  11,H   1)     -0.13 -0.002131    0.22      0.09   
    48. D(H   6,O  12,C  11,C   8)    118.97  0.003321   -0.37    118.60   
    49. D(H   6,O  12,C  11,C  13)   -119.34 -0.000437   -0.37   -119.71   
    50. D(H   2,C  13,C  11,H   1)    -67.34  0.000886   -0.23    -67.58   
    51. D(H   2,C  13,C  11,C   8)    173.57  0.002933    0.35    173.92   
    52. D(H   2,C  13,C  11,O  12)     52.46 -0.004102    0.35     52.81   
    53. D(H   3,C  13,C  11,H   1)     52.62  0.000495   -0.11     52.50   
    54. D(H   3,C  13,C  11,C   8)    -66.47  0.002542    0.47    -66.00   
    55. D(H   3,C  13,C  11,O  12)    172.42 -0.004493    0.47    172.89   
    ----------------------------------------------------------------------------

Geometry step timings:
Preparation and reading OPT file:      0.001 s (16.667 %)
Internal coordinates            :      0.000 s ( 0.000 %)
B/P matrices and projection     :      0.001 s (16.667 %)
Hessian update/contruction      :      0.001 s (16.667 %)
Making the step                 :      0.001 s (16.667 %)
Converting the step to Cartesian:      0.000 s ( 0.000 %)
Storing new data                :      0.000 s ( 0.000 %)
Checking convergence            :      0.000 s ( 0.000 %)
Final printing                  :      0.002 s (33.333 %)
Total time                      :      0.006 s

Time for energy+gradient        :      3.512 s
Time for complete geometry iter :      3.587 s

         *************************************************************
         *                GEOMETRY OPTIMIZATION CYCLE   2            *
         *************************************************************
---------------------------------
CARTESIAN COORDINATES (ANGSTROEM)
---------------------------------
  H     94.050166   95.549164  -47.385185
  H     93.344503   96.502950  -50.199737
  H     91.456661   94.845090  -49.956823
  H     93.051034   94.091362  -50.023627
  H     92.214977   94.262008  -48.476132
  H     94.680699   97.967775  -48.860015
  H     91.939628   97.750595  -49.171216
  N     94.922211   97.282994  -48.119642
  C     94.316044   95.973919  -48.355397
  C     95.291546   95.009633  -49.026507
  O     95.834610   95.303886  -50.088880
  C     93.046342   96.097501  -49.227525
  O     92.107397   96.981345  -48.594074
  C     92.400388   94.729945  -49.435980

----------------------------
CARTESIAN COORDINATES (A.U.)
----------------------------
  NO LB      ZA    FRAG     MASS         X           Y           Z
   0 H     1.0000    0     1.008  177.729057  180.561752  -89.545022
   1 H     1.0000    0     1.008  176.395547  182.364147  -94.863755
   2 H     1.0000    0     1.008  172.828043  179.231246  -94.404715
   3 H     1.0000    0     1.008  175.840970  177.806906  -94.530956
   4 H     1.0000    0     1.008  174.261052  178.129381  -91.606613
   5 H     1.0000    0     1.008  178.920591  185.132264  -92.332048
   6 H     1.0000    0     1.008  173.740717  184.721854  -92.920131
   7 N     7.0000    0    14.007  179.376982  183.838217  -90.932945
   8 C     6.0000    0    12.011  178.231494  181.364424  -91.378458
   9 C     6.0000    0    12.011  180.074925  179.542187  -92.646671
  10 O     8.0000    0    15.999  181.101167  180.098245  -94.654265
  11 C     6.0000    0    12.011  175.832105  181.597959  -93.026540
  12 O     8.0000    0    15.999  174.057756  183.268182  -91.829491
  13 C     6.0000    0    12.011  174.611428  179.013652  -93.420464

--------------------------------
INTERNAL COORDINATES (ANGSTROEM)
--------------------------------
 H      0   0   0     0.000000000000     0.00000000     0.00000000
 H      1   0   0     3.054402169327     0.00000000     0.00000000
 H      2   1   0     2.524173972012    83.05117775     0.00000000
 H      3   2   1     1.764820796068    66.49634107   292.98417342
 H      3   2   1     1.762803241169    88.64485444   350.77385607
 H      2   1   3     2.392902665321    63.01472675   158.09354982
 H      2   1   3     2.141996463717    83.73935567    81.78548162
 N      6   2   1     1.037017128863    97.21179627    13.14072166
 C      1   2   3     1.091979961444    27.87963911   153.70301924
 C      9   1   2     1.527036334727   107.48099576   242.59017156
 O     10   9   1     1.228877421478   120.73301971   186.02354862
 C      2   1   3     1.094754000927    29.41840045    28.85917773
 O      7   2   1     0.976209986870    73.27246679   334.88037592
 C      5   3   2     1.083813089212    35.59917831   332.45299355

---------------------------
INTERNAL COORDINATES (A.U.)
---------------------------
 H      0   0   0     0.000000000000     0.00000000     0.00000000
 H      1   0   0     5.771983602884     0.00000000     0.00000000
 H      2   1   0     4.769997521475    83.05117775     0.00000000
 H      3   2   1     3.335027980018    66.49634107   292.98417342
 H      3   2   1     3.331215353797    88.64485444   350.77385607
 H      2   1   3     4.521930702586    63.01472675   158.09354982
 H      2   1   3     4.047786696254    83.73935567    81.78548162
 N      6   2   1     1.959678369737    97.21179627    13.14072166
 C      1   2   3     2.063543070858    27.87963911   153.70301924
 C      9   1   2     2.885680469181   107.48099576   242.59017156
 O     10   9   1     2.322241778752   120.73301971   186.02354862
 C      2   1   3     2.068785245767    29.41840045    28.85917773
 O      7   2   1     1.844769524383    73.27246679   334.88037592
 C      5   3   2     2.048109918970    35.59917831   332.45299355

------------------------------------------------------------------------------
                   ___                                                        
                  /   \      - P O W E R E D   B Y -                         
                 /     \                                                     
                 |  |  |   _    _      __       _____    __    __             
                 |  |  |  | |  | |    /  \     |  _  \  |  |  /  |          
                  \  \/   | |  | |   /    \    | | | |  |  | /  /          
                 / \  \   | |__| |  /  /\  \   | |_| |  |  |/  /          
                |  |  |   |  __  | /  /__\  \  |    /   |      \           
                |  |  |   | |  | | |   __   |  |    \   |  |\   \          
                \     /   | |  | | |  |  |  |  | |\  \  |  | \   \       
                 \___/    |_|  |_| |__|  |__|  |_| \__\ |__|  \__/        
                                                                              
                      - O R C A' S   B I G   F R I E N D -                    
                                      &                                       
                       - I N T E G R A L  F E E D E R -                       
                                                                              
 v1 FN, 2020, v2 2021, v3 2022-2024                                           
------------------------------------------------------------------------------


----------------------
SHARK INTEGRAL PACKAGE
----------------------

Number of atoms                             ...     14
Number of basis functions                   ...     42
Number of shells                            ...     28
Maximum angular momentum                    ...      1
Integral batch strategy                     ... SHARK/LIBINT Hybrid
RI-J (if used) integral strategy            ... SPLIT-RIJ (Revised 2003 algorithm where possible)
Printlevel                                  ...      1
Contraction scheme used                     ... SEGMENTED contraction
Prescreening option                         ... SCHWARTZ
   Thresh                                   ... 2.500e-11
   Tcut                                     ... 2.500e-12
   Tpresel                                  ... 2.500e-12 
Coulomb Range Separation                    ... NOT USED
Exchange Range Separation                   ... NOT USED
Multipole approximations                    ... NOT USED
Finite Nucleus Model                        ... NOT USED
CABS basis                                  ... NOT available
Auxiliary Coulomb fitting basis             ... NOT available
Auxiliary J/K fitting basis                 ... NOT available
Auxiliary Correlation fitting basis         ... NOT available
Auxiliary 'external' fitting basis          ... NOT available

Checking pre-screening integrals            ... done (  0.0 sec) Dimension = 28
Check shell pair data                       ... done (  0.0 sec)
Shell pair information
Shell pair cut-off parameter TPreSel        ...   2.5e-12
Total number of shell pairs                 ...       406
Shell pairs after pre-screening             ...       391
Total number of primitive shell pairs       ...      3654
Primitive shell pairs kept                  ...      2664
          la=0 lb=0:    216 shell pairs
          la=1 lb=0:    147 shell pairs
          la=1 lb=1:     28 shell pairs

Calculating one electron integrals          ... done (  0.0 sec)
Calculating Nuclear repulsion               ... done (  0.0 sec) ENN=    297.551709078518 Eh
Calculating 4-index integrals               ...     -> SHARK/Ints2Disk: Thresh =     2.500000e-11 TCut=    2.500000e-12 
    -> calling libint FockFlag=2 Lmax_loc=1
    ->Total LIBINT loop time =    0.001 sec
    -> L=0 0 0 0:     0.019 sec done=     22460 (=100.0%) skipped=         0 
    -> L=1 0 0 0:     0.036 sec done=     30897 (=100.0%) skipped=         0 
    -> L=1 0 1 0:     0.025 sec done=     10633 (=100.0%) skipped=         0 
    -> L=1 1 0 0:     0.016 sec done=      6010 (=100.0%) skipped=         0 
    -> L=1 1 1 0:     0.034 sec done=      4085 (=100.0%) skipped=         0 
    -> L=1 1 1 1:     0.006 sec done=       406 (=100.0%) skipped=         0 
    ->Total SHARK integral loop time =    0.137 sec
    -> Total Integral generation matrix time =    0.146 sec
    -> Number of small integrals   =     13797
    -> Number of medium integrals  =     44350
    -> Number of large integrals   =    323227
    -> Number of MB stored         =         4 MB

done (  0.1 sec)

Diagonalization of the overlap matrix:
Smallest eigenvalue                        ... 2.091e-01
Time for diagonalization                   ...    0.001 sec
Threshold for overlap eigenvalues          ... 1.000e-07
Number of eigenvalues below threshold      ... 0
Time for construction of square roots      ...    0.001 sec
Total time needed                          ...    0.003 sec

-------------------
DFT GRID GENERATION
-------------------

General Integration Accuracy     IntAcc      ... 4.388
Radial Grid Type                 RadialGrid  ... OptM3 with GC (2021)
Angular Grid (max. ang.)         AngularGrid ... 4 (Lebedev-302)
Angular grid pruning method      GridPruning ... 4 (adaptive)
Weight generation scheme         WeightScheme... mBecke (2022)
Basis function cutoff            BFCut       ... 1.0000e-11
Integration weight cutoff        WCut        ... 1.0000e-14
Partially contracted basis set               ... off
Rotationally invariant grid construction     ... off
Angular grids for H and He will be reduced by one unit

Total number of grid points                  ...    64889
Total number of batches                      ...     1021
Average number of points per batch           ...       63
Average number of grid points per atom       ...     4635
Initializing property integral containers    ... done (  0.0 sec)

SHARK setup successfully completed in   0.7 seconds

Maximum memory used throughout the entire STARTUP-calculation: 30.2 MB
Occupation numbers will be reassigned to an Aufbau configuration
             **** ENERGY FILE WAS UPDATED (Thr150_tightOptimization.en.tmp) ****
Finished Guess after   0.1 sec
Maximum memory used throughout the entire GUESS-calculation: 2.9 MB

 InCore treatment chosen for four center integrals:
   Memory dedicated               ...    1024 MB
   Memory needed                  ...      4 MB
   Number of tiny    integrals    ...   13797
   Number of small   integrals    ...   44350
   Number of regular integrals    ...  323227

----------------------------------------D-I-I-S--------------------------------------------
Iteration    Energy (Eh)           Delta-E    RMSDP     MaxDP     DIISErr   Damp  Time(sec)
-------------------------------------------------------------------------------------------
    1    -357.0246635066231420     0.00e+00  8.85e-04  1.08e-02  2.33e-02  0.700   0.1
    2    -357.0253117622631862    -6.48e-04  8.74e-04  1.07e-02  2.01e-02  0.700   0.1
                               ***Turning on AO-DIIS***
    3    -357.0258912836854961    -5.80e-04  9.37e-04  1.13e-02  1.69e-02  0.700   0.1
    4    -357.0263859126895341    -4.95e-04  2.78e-03  3.32e-02  1.34e-02  0.000   0.1
                              *** Initializing SOSCF ***
---------------------------------------S-O-S-C-F--------------------------------------
Iteration    Energy (Eh)           Delta-E    RMSDP     MaxDP     MaxGrad    Time(sec)
--------------------------------------------------------------------------------------
    5    -357.0281032544082791    -1.72e-03  5.44e-04  4.77e-03  3.09e-03     0.1
    6    -357.0281824579176373    -7.92e-05  4.45e-04  6.13e-03  1.69e-03     0.1
    7    -357.0282225326292291    -4.01e-05  1.11e-03  1.25e-02  1.22e-03     0.1
    8    -357.0282561109138442    -3.36e-05  1.92e-04  1.96e-03  7.08e-04     0.1
    9    -357.0282622310114675    -6.12e-06  6.74e-05  7.75e-04  2.31e-04     0.1
   10    -357.0282632134333198    -9.82e-07  1.26e-04  1.96e-03  1.12e-04     0.1
   11    -357.0282639036975070    -6.90e-07  4.10e-05  4.66e-04  5.23e-05     0.1
   12    -357.0282639871819583    -8.35e-08  1.14e-05  1.07e-04  3.43e-05     0.1
   13    -357.0282640147336224    -2.76e-08  1.39e-05  1.14e-04  1.58e-05     0.1
   14    -357.0282640269277863    -1.22e-08  3.66e-06  3.90e-05  6.41e-06     0.1
   15    -357.0282640281311615    -1.20e-09  1.80e-06  2.24e-05  3.50e-06     0.1
                 **** Energy Check signals convergence ****

               *****************************************************
               *                     SUCCESS                       *
               *           SCF CONVERGED AFTER  15 CYCLES          *
               *****************************************************

             **** ENERGY FILE WAS UPDATED (Thr150_tightOptimization.en.tmp) ****

----------------
TOTAL SCF ENERGY
----------------

Total Energy       :       -357.02826402813116 Eh           -9715.23298 eV

Components:
Nuclear Repulsion  :        297.55170907851800 Eh            8096.79364 eV
Electronic Energy  :       -654.57997310664916 Eh          -17812.02661 eV
One Electron Energy:      -1077.78330249186638 Eh          -29327.97467 eV
Two Electron Energy:        423.20332938521722 Eh           11515.94805 eV

Virial components:
Potential Energy   :       -714.46591809551330 Eh          -19441.60602 eV
Kinetic Energy     :        357.43765406738214 Eh            9726.37305 eV
Virial Ratio       :          1.99885465329522

---------------
SCF CONVERGENCE
---------------

  Last Energy change         ...    1.2034e-09  Tolerance :   1.0000e-08
  Last MAX-Density change    ...    2.2360e-05  Tolerance :   1.0000e-07
  Last RMS-Density change    ...    1.8033e-06  Tolerance :   5.0000e-09
  Last DIIS Error            ...    3.0912e-03  Tolerance :   5.0000e-07
  Last Orbital Gradient      ...    3.4993e-06  Tolerance :   1.0000e-05
  Last Orbital Rotation      ...    1.0830e-05  Tolerance :   1.0000e-05


Total SCF time: 0 days 0 hours 0 min 1 sec 
Finished LeanSCF after   1.2 sec

Maximum memory used throughout the entire LEANSCF-calculation: 56.4 MB


-------------------------------------------------------------------------------
                          DFT DISPERSION CORRECTION                            
                                                                               
                              DFTD3 V3.1  Rev 1                                
                          USING Becke-Johnson damping                          
-------------------------------------------------------------------------------
-------------------------   ----------------
Dispersion correction           -0.054132069
-------------------------   ----------------

------------------   -----------------
gCP+bas correction        -0.056757218
------------------   -----------------
----------------------------   ----------------
Total correction to HF/MINIX       -0.110889287
----------------------------   ----------------


-------------------------   --------------------
FINAL SINGLE POINT ENERGY      -357.139153315058
-------------------------   --------------------

------------------------------------------------------------------------------
                         ORCA SCF GRADIENT CALCULATION
------------------------------------------------------------------------------

Nuc. rep. gradient        (SHARK) ... done (  0.0 sec)
HCore & Overlap gradient  (SHARK) ... done (  0.0 sec)
Two-electron gradient     (SHARK) ... done (  0.7 sec)
Dispersion correction             ... done (  0.1 sec)

-------------------
DISPERSION GRADIENT
-------------------

   1   H   :    0.000299844   -0.000365335    0.001639555
   2   H   :   -0.000387692    0.000749631   -0.001627042
   3   H   :   -0.000932837   -0.000641927   -0.000505040
   4   H   :   -0.000565422   -0.001290841   -0.000757514
   5   H   :   -0.000873598   -0.001162810    0.000398168
   6   H   :    0.000822027    0.001457664    0.000149439
   7   H   :   -0.000892806    0.000910070    0.000041688
   8   N   :    0.001517426    0.002314805    0.001397925
   9   C   :    0.001327275    0.000130734    0.001556336
  10   C   :    0.003004666   -0.001688886   -0.000206931
  11   O   :    0.001818657   -0.000818004   -0.001194432
  12   C   :   -0.001495946    0.000561619   -0.000596253
  13   O   :   -0.001894729    0.001592761    0.000431186
  14   C   :   -0.001746864   -0.001749480   -0.000727083

Difference to translation invariance:
           :    0.0000000000    0.0000000000    0.0000000000

Difference to rotation invariance:
           :    0.0000000000    0.0000000000    0.0000000000

Norm of the Dispersion gradient    ...    0.0080060528
RMS gradient                       ...    0.0012353608
MAX gradient                       ...    0.0030046664
gCP correction                   ... done

------------------
CARTESIAN GRADIENT
------------------

   1   H   :   -0.004926993    0.006498906    0.002385719
   2   H   :   -0.001968067    0.001039794   -0.000085251
   3   H   :    0.000678280    0.001331497    0.000422435
   4   H   :    0.000959467    0.001810203   -0.000183301
   5   H   :    0.000845250    0.000910879   -0.000113948
   6   H   :   -0.005454563    0.013994798    0.013319233
   7   H   :   -0.001027903    0.001455034   -0.001605480
   8   N   :    0.015667739    0.067571625   -0.002023377
   9   C   :    0.053711781   -0.158293340   -0.107656786
  10   C   :   -0.110422903    0.010573879    0.164741950
  11   O   :    0.034147223    0.039871359   -0.092327591
  12   C   :    0.017478961   -0.006827923    0.020080359
  13   O   :   -0.008380515    0.005488570   -0.001007170
  14   C   :    0.008692240    0.014574720    0.004053209

Difference to translation invariance:
           :   -0.0000000004   -0.0000000003    0.0000000001

Difference to rotation invariance:
           :   -0.0000011637   -0.0000012378    0.0000002320

Norm of the Cartesian gradient     ...    0.3110105321
RMS gradient                       ...    0.0479899670
MAX gradient                       ...    0.1647419504

-------
TIMINGS
-------

Total SCF gradient time     ....        0.797 sec

Densities                   ....       0.001 sec  (  0.1%)
One electron gradient       ....       0.035 sec  (  4.4%)
Two electron gradient       ....       0.657 sec  ( 82.4%)

Maximum memory used throughout the entire SCFGRAD-calculation: 23.7 MB
------------------------------------------------------------------------------
[...]

               *****************************************************
               *                     SUCCESS                       *
               *           SCF CONVERGED AFTER   4 CYCLES          *
               *****************************************************

             **** ENERGY FILE WAS UPDATED (Thr150_tightOptimization.en.tmp) ****

----------------
TOTAL SCF ENERGY
----------------

Total Energy       :       -357.04151832395024 Eh           -9715.59364 eV

Components:
Nuclear Repulsion  :        298.41252395275814 Eh            8120.21760 eV
Electronic Energy  :       -655.45404227670838 Eh          -17835.81125 eV
One Electron Energy:      -1079.19219528952021 Eh          -29366.31259 eV
Two Electron Energy:        423.73815301281184 Eh           11530.50134 eV

Virial components:
Potential Energy   :       -714.46095386246316 Eh          -19441.47094 eV
Kinetic Energy     :        357.41943553851286 Eh            9725.87730 eV
Virial Ratio       :          1.99894265063120

---------------
SCF CONVERGENCE
---------------

  Last Energy change         ...    7.1435e-09  Tolerance :   1.0000e-08
  Last MAX-Density change    ...    1.9409e-05  Tolerance :   1.0000e-07
  Last RMS-Density change    ...    1.5690e-06  Tolerance :   5.0000e-09
  Last DIIS Error            ...    2.9039e-04  Tolerance :   5.0000e-07
  Last Orbital Gradient      ...    3.9789e-06  Tolerance :   1.0000e-05
  Last Orbital Rotation      ...    1.1681e-05  Tolerance :   1.0000e-05


----------------
ORBITAL ENERGIES
----------------

  NO   OCC          E(Eh)            E(eV) 
   0   2.0000     -20.451165      -556.5045 
   1   2.0000     -20.330883      -553.2314 
   2   2.0000     -15.374398      -418.3586 
   3   2.0000     -11.312992      -307.8422 
   4   2.0000     -11.273742      -306.7741 
   5   2.0000     -11.253762      -306.2304 
   6   2.0000     -11.176280      -304.1221 
   7   2.0000      -1.455659       -39.6105 
   8   2.0000      -1.359390       -36.9909 
   9   2.0000      -1.181742       -32.1568 
  10   2.0000      -1.054891       -28.7050 
  11   2.0000      -0.940644       -25.5962 
  12   2.0000      -0.853556       -23.2264 
  13   2.0000      -0.767953       -20.8971 
  14   2.0000      -0.702823       -19.1248 
  15   2.0000      -0.665174       -18.1003 
  16   2.0000      -0.644424       -17.5357 
  17   2.0000      -0.620754       -16.8916 
  18   2.0000      -0.574625       -15.6363 
  19   2.0000      -0.570987       -15.5374 
  20   2.0000      -0.558059       -15.1856 
  21   2.0000      -0.546693       -14.8763 
  22   2.0000      -0.533908       -14.5284 
  23   2.0000      -0.496768       -13.5177 
  24   2.0000      -0.450531       -12.2596 
  25   2.0000      -0.407156       -11.0793 
  26   2.0000      -0.298986        -8.1358 
  27   0.0000       0.023951         0.6518 
  28   0.0000       0.150433         4.0935 
  29   0.0000       0.459155        12.4942 
  30   0.0000       0.529004        14.3949 
  31   0.0000       0.538801        14.6615 
  32   0.0000       0.591182        16.0869 
  33   0.0000       0.618003        16.8167 
  34   0.0000       0.636132        17.3100 
  35   0.0000       0.644055        17.5256 
  36   0.0000       0.663998        18.0683 
  37   0.0000       0.708385        19.2761 
*Only the first 10 virtual orbitals were printed.

                    ********************************
                    * MULLIKEN POPULATION ANALYSIS *
                    ********************************

-----------------------
MULLIKEN ATOMIC CHARGES
-----------------------
   0 H :    0.163674
   1 H :    0.135880
   2 H :    0.148732
   3 H :    0.132669
   4 H :    0.142095
   5 H :    0.180161
   6 H :    0.309850
   7 N :   -0.323151
   8 C :   -0.094373
   9 C :    0.324577
  10 O :   -0.336761
  11 C :    0.072187
  12 O :   -0.486493
  13 C :   -0.369046
Sum of atomic charges:   -0.0000000

--------------------------------
MULLIKEN REDUCED ORBITAL CHARGES
--------------------------------
  0 H s       :     0.836326  s :     0.836326

  1 H s       :     0.864120  s :     0.864120

  2 H s       :     0.851268  s :     0.851268

  3 H s       :     0.867331  s :     0.867331

  4 H s       :     0.857905  s :     0.857905

  5 H s       :     0.819839  s :     0.819839

  6 H s       :     0.690150  s :     0.690150

  7 N s       :     3.704138  s :     3.704138
      pz      :     1.395034  p :     3.619013
      px      :     1.319676
      py      :     0.904303

  8 C s       :     3.141493  s :     3.141493
      pz      :     1.100676  p :     2.952880
      px      :     0.982501
      py      :     0.869703

  9 C s       :     3.383836  s :     3.383836
      pz      :     0.800334  p :     2.291587
      px      :     0.709783
      py      :     0.781469

 10 O s       :     3.846437  s :     3.846437
      pz      :     1.409043  p :     4.490324
      px      :     1.451449
      py      :     1.629831

 11 C s       :     3.095807  s :     3.095807
      pz      :     1.003486  p :     2.832006
      px      :     0.861910
      py      :     0.966610

 12 O s       :     3.797730  s :     3.797730
      pz      :     1.827958  p :     4.688764
      px      :     1.550589
      py      :     1.310216

 13 C s       :     3.147378  s :     3.147378
      pz      :     1.124193  p :     3.221668
      px      :     1.103584
      py      :     0.993890



                     *******************************
                     * LOEWDIN POPULATION ANALYSIS *
                     *******************************

----------------------
LOEWDIN ATOMIC CHARGES
----------------------
   0 H :    0.099995
   1 H :    0.076300
   2 H :    0.098668
   3 H :    0.087317
   4 H :    0.092818
   5 H :    0.121667
   6 H :    0.229675
   7 N :   -0.256138
   8 C :   -0.037055
   9 C :    0.215438
  10 O :   -0.223512
  11 C :    0.098163
  12 O :   -0.362415
  13 C :   -0.240921

-------------------------------
LOEWDIN REDUCED ORBITAL CHARGES
-------------------------------
  0 H s       :     0.900005  s :     0.900005

  1 H s       :     0.923700  s :     0.923700

  2 H s       :     0.901332  s :     0.901332

  3 H s       :     0.912683  s :     0.912683

  4 H s       :     0.907182  s :     0.907182

  5 H s       :     0.878333  s :     0.878333

  6 H s       :     0.770325  s :     0.770325

  7 N s       :     3.574101  s :     3.574101
      pz      :     1.404426  p :     3.682037
      px      :     1.326087
      py      :     0.951525

  8 C s       :     3.004462  s :     3.004462
      pz      :     1.101986  p :     3.032593
      px      :     1.012581
      py      :     0.918026

  9 C s       :     3.336508  s :     3.336508
      pz      :     0.881194  p :     2.448054
      px      :     0.748078
      py      :     0.818781

 10 O s       :     3.717402  s :     3.717402
      pz      :     1.430758  p :     4.506110
      px      :     1.451130
      py      :     1.624222

 11 C s       :     2.971971  s :     2.971971
      pz      :     1.019544  p :     2.929867
      px      :     0.911165
      py      :     0.999158

 12 O s       :     3.654569  s :     3.654569
      pz      :     1.830850  p :     4.707847
      px      :     1.558729
      py      :     1.318268

 13 C s       :     2.979038  s :     2.979038
      pz      :     1.121435  p :     3.261883
      px      :     1.107086
      py      :     1.033362



                      *****************************
                      * MAYER POPULATION ANALYSIS *
                      *****************************

  NA   - Mulliken gross atomic population
  ZA   - Total nuclear charge
  QA   - Mulliken gross atomic charge
  VA   - Mayer's total valence
  BVA  - Mayer's bonded valence
  FA   - Mayer's free valence

  ATOM       NA         ZA         QA         VA         BVA        FA
  0 H      0.8363     1.0000     0.1637     0.9732     0.9732    -0.0000
  1 H      0.8641     1.0000     0.1359     0.9815     0.9815     0.0000
  2 H      0.8513     1.0000     0.1487     0.9779     0.9779    -0.0000
  3 H      0.8673     1.0000     0.1327     0.9824     0.9824     0.0000
  4 H      0.8579     1.0000     0.1421     0.9798     0.9798    -0.0000
  5 H      0.8198     1.0000     0.1802     0.9675     0.9675     0.0000
  6 H      0.6902     1.0000     0.3098     0.9040     0.9040    -0.0000
  7 N      7.3232     7.0000    -0.3232     2.8632     2.8632    -0.0000
  8 C      6.0944     6.0000    -0.0944     3.9232     3.9232    -0.0000
  9 C      5.6754     6.0000     0.3246     3.3069     3.3069    -0.0000
 10 O      8.3368     8.0000    -0.3368     2.3331     2.3331    -0.0000
 11 C      5.9278     6.0000     0.0722     3.9087     3.9087    -0.0000
 12 O      8.4865     8.0000    -0.4865     1.9141     1.9141    -0.0000
 13 C      6.3690     6.0000    -0.3690     3.9372     3.9372    -0.0000

  Mayer bond orders larger than 0.100000
B(  0-H ,  8-C ) :   0.9373 B(  1-H , 11-C ) :   0.9434 B(  2-H , 13-C ) :   0.9673 
B(  3-H , 13-C ) :   0.9704 B(  4-H , 13-C ) :   0.9700 B(  5-H ,  7-N ) :   0.9466 
B(  6-H , 12-O ) :   0.8753 B(  7-N ,  8-C ) :   1.2576 B(  7-N ,  9-C ) :   0.4222 
B(  7-N , 10-O ) :   0.1865 B(  8-C ,  9-C ) :   0.7418 B(  8-C , 11-C ) :   0.9318 
B(  9-C , 10-O ) :   2.0962 B( 11-C , 12-O ) :   0.9593 B( 11-C , 13-C ) :   1.0028 


-------
TIMINGS
-------

Total SCF time: 0 days 0 hours 0 min 0 sec 

Total time                  ....       0.595 sec
Sum of individual times     ....       0.572 sec  ( 96.1%)

SCF preparation             ....       0.068 sec  ( 11.4%)
Fock matrix formation       ....       0.092 sec  ( 15.5%)
  Startup                   ....       0.007 sec  (  7.6% of F)
  Coulomb+Exchange Fock     ....       0.076 sec  ( 82.6% of F)
Diagonalization             ....       0.000 sec  (  0.0%)
Density matrix formation    ....       0.059 sec  (  9.9%)
Total Energy calculation    ....       0.144 sec  ( 24.2%)
Population analysis         ....       0.092 sec  ( 15.5%)
Orbital Transformation      ....       0.012 sec  (  2.0%)
Orbital Orthonormalization  ....       0.000 sec  (  0.0%)
DIIS solution               ....       0.027 sec  (  4.5%)
SOSCF solution              ....       0.078 sec  ( 13.1%)
Finished LeanSCF after   0.7 sec

Maximum memory used throughout the entire LEANSCF-calculation: 57.0 MB


-------------------------------------------------------------------------------
                          DFT DISPERSION CORRECTION                            
                                                                               
                              DFTD3 V3.1  Rev 1                                
                          USING Becke-Johnson damping                          
-------------------------------------------------------------------------------
Hartree-Fock is recognized
Active option DFTDOPT                   ...         4   

molecular C6(AA) [au] = 1729.554452 


            DFT-D V3
 parameters
 using HF/MINIX parameters
 s6 scaling factor         :     1.0000 
 a1 scaling factor         :     0.4171 
 s8 scaling factor         :     0.8777 
 a2 scaling factor         :     2.9149 
 ad hoc parameters k1-k3   :    16.0000     1.3333    -4.0000 

 Edisp/kcal,au: -34.677239197410  -0.055261692344 
 E6   /kcal   : -19.639253895 
 E8   /kcal   : -15.037985302 
 % E8         :  43.365578259 

-------------------------   ----------------
Dispersion correction           -0.055261692
-------------------------   ----------------

------------------   -----------------
gCP+bas correction        -0.055977797
------------------   -----------------
----------------------------   ----------------
Total correction to HF/MINIX       -0.111239490
----------------------------   ----------------


-------------------------   --------------------
FINAL SINGLE POINT ENERGY      -357.152757813494
-------------------------   --------------------

                                *** OPTIMIZATION RUN DONE ***


------------------------------------------------------------------------------
                              ORCA PROPERTY CALCULATIONS
------------------------------------------------------------------------------

GBWName                                 ... Thr150_tightOptimization.gbw
Number of atoms                         ...     14
Number of basis functions               ...     42
Max core memory                         ...   1024 MB

Electric properties:
Dipole moment                           ... YES
Quadrupole moment                       ...  NO
Static polarizability (Dipole/Dipole)   ...  NO
Static polarizability (Dipole/Quad.)    ...  NO
Static polarizability (Quad./Quad.)     ...  NO
Static polarizability (Velocity)        ...  NO

Atomic electric properties:
Dipole moment                           ...  NO
Quadrupole moment                       ...  NO
Static polarizability                   ...  NO

Choice of electric origin               ... Center of mass
Position of electric origin             ...   177.385018   181.389473   -92.657520

General magnetic properties:
Magnetizability                         ...  NO

EPR properties:
g-Tensor (aka g-matrix)                 ...  NO
Zero-Field splitting spin-orbit         ...  NO
Zero-field splitting spin-spin          ...  NO
Hyperfine couplings                     ...  NO (   0 nuclei)
Quadrupole couplings                    ...  NO (   0 nuclei)
Contact density                         ...  NO (   0 nuclei)

NMR properties:
Chemical shifts                         ...  NO (   0 nuclei)
Spin-rotation constants                 ...  NO (   0 nuclei)
Spin-spin couplings                     ...  NO (   0 nuclei,    0 pairs)

Choice of magnetic origin               ... GIAO
Position of magnetic origin             ...     0.000000     0.000000     0.000000

Properties with geometric perturbations:
SCF Hessian                             ...  NO
IR spectrum                             ...  NO
VCD spectrum                            ...  NO
X-ray spectroscopy properties:
SCF XES/XAS/RIXS spectra                ...  NO


-------------
DIPOLE MOMENT
-------------

Method             : SCF
Type of density    : Electron Density
Multiplicity       :   1
Irrep              :   0
Energy             :  -357.0415183239502426 Eh
Relativity type    : 
Basis              : AO
                                X                 Y                 Z
Electronic contribution:      5.282780769       0.902574111       0.335132104
Nuclear contribution   :     -5.451510183      -1.133500722      -0.583554417
                        -----------------------------------------
Total Dipole Moment    :     -0.168729413      -0.230926612      -0.248422313
                        -----------------------------------------
Magnitude (a.u.)       :      0.378827613
Magnitude (Debye)      :      0.962903269



--------------------
Rotational spectrum 
--------------------
 
Rotational constants in cm-1:             0.127920             0.073845             0.053032 
Rotational constants in MHz :          3834.958211          2213.806230          1589.855739 

Dipole components along the rotational axes: 
x,y,z [a.u.] :    -0.094561    -0.348395    -0.114845 
x,y,z [Debye]:    -0.240356    -0.885550    -0.291914 

 

Dipole moment calculation done in   0.0 sec 

Maximum memory used throughout the entire PROP-calculation: 2.6 MB

--------------------------------
SUGGESTED CITATIONS FOR THIS RUN
--------------------------------

Below you find a list of papers that are relevant to this ORCA run
We neither can nor want to force you to cite these papers, but we appreciate if you do
You receive ORCA, which is the product of decades of hard work by many enthusiastic individuals, for free
The only thing we kindly ask in return is that you cite our papers,
We deeply appreciate it, if you show your appreciation for ORCA by not just citing the generic ORCA reference.

Please note that relegating all ORCA citations to the supporting information does *not* help us.
SI sections are not indexed - citations you put there will not count into any citation statistics
But we need these citations in order to attract the funding resources that allow us to do what we are doing

Therefore, if you are a happy ORCA user, please consider citing a few of the papers listed below in the main body of your paper

In addition to the list printed below, the program has created the file Thr150_tightOptimization.bibtex that contains the list in bibtex format
You can import this file easily into all common literature databanks and citation aid programs


List of essential papers. We consider these as the minimum necessary citations

  1. Neese,F.
     Software update: the ORCA program system, version 5.0
     WIRES Comput. Molec. Sci., 2022 12(1)e1606
     doi.org/10.1002/wcms.1606

List of papers to cite with high priority. The work reported in these papers was absolutely
necessary for this run to complete.
Our perspective: the developers of density functionals and basis sets usually get cited in chemistry papers
Good! But without the algorithms to do something with them, the functionals or basis sets would not do anything.
Hence, in our opinion, the algorithm design and method developments papers are equally worthy of getting cited

  1. Neese,F.
     The SHARK Integral Generation and Digestion System
     J. Comp. Chem., 2022  1-16
     doi.org/10.1002/jcc.26942
  2. Grimme,S.; Antony,J.; Ehrlich,S.; Krieg,H.
     A consistent and accurate ab initio parametrization of density functional dispersion correction (DFT-D) for the 94 elements H-Pu
     J. Chem. Phys., 2010 132 154104-XXXX
     doi.org/10.1063/1.3382344
  3. Grimme,S.; Ehrlich,S.; Goerigk,L.
     Effect of the damping function in dispersion corrected density functional theory
     J. Comput. Chem., 2011 32(7)1456-1465
     doi.org/10.1002/jcc.21759

List of suggested additional citations. These are papers that are important in the 'surrounding' of 
of this run, or papers that preceded the highly important papers. If you like your results we are grateful for a citation.

  1. Neese,F.
     The ORCA program system
     WIRES Comput. Molec. Sci., 2012 2(1)73-78
     doi.org/10.1002/wcms.81
  2. Neese,F.
     Software update: the ORCA program system, version 4.0
     WIRES Comput. Molec. Sci., 2018 8(1)1-6
     doi.org/10.1002/wcms.1327
  3. Neese,F.; Wennmohs,F.; Becker,U.; Riplinger,C.
     The ORCA quantum chemistry program package
     J. Chem. Phys., 2020 152 Art. No. L224108
     doi.org/10.1063/5.0004608

List of optional additional citations

  1. Neese,F.
     Approximate second-order SCF convergence for spin unrestricted wavefunctions
     Chem. Phys. Lett., 2000 325(1-3)93-98
     doi.org/10.1016/s0009-2614(00)00662-x

Timings for individual modules:

Sum of individual times          ...       43.582 sec (=   0.726 min)
Startup calculation              ...       12.232 sec (=   0.204 min)  28.1 %
SCF iterations                   ...       18.404 sec (=   0.307 min)  42.2 %
Property calculations            ...        0.075 sec (=   0.001 min)   0.2 %
SCF Gradient evaluation          ...       12.557 sec (=   0.209 min)  28.8 %
Geometry relaxation              ...        0.314 sec (=   0.005 min)   0.7 %
                             ****ORCA TERMINATED NORMALLY****
TOTAL RUN TIME: 0 days 0 hours 0 minutes 46 seconds 805 msec
