
                                 *****************
                                 * O   R   C   A *
                                 *****************

                                            #,                                       
                                            ###                                      
                                            ####                                     
                                            #####                                    
                                            ######                                   
                                           ########,                                 
                                     ,,################,,,,,                         
                               ,,#################################,,                 
                          ,,##########################################,,             
                       ,#########################################, ''#####,          
                    ,#############################################,,   '####,        
                  ,##################################################,,,,####,       
                ,###########''''           ''''###############################       
              ,#####''   ,,,,##########,,,,          '''####'''          '####       
            ,##' ,,,,###########################,,,                        '##       
           ' ,,###''''                  '''############,,,                           
         ,,##''                                '''############,,,,        ,,,,,,###''
      ,#''                                            '''#######################'''  
     '                                                          ''''####''''         
             ,#######,   #######,   ,#######,      ##                                
            ,#'     '#,  ##    ##  ,#'     '#,    #''#        ,####,   ,####,        
            ##       ##  ##   ,#'  ##            #'  '#       #'       #'  '#        
            ##       ##  #######   ##           ,######,      #####,   #    #        
            '#,     ,#'  ##    ##  '#,     ,#' ,#      #,     #,   #   #,  ,#        
             '#######'   ##     ##  '#######'  #'      '#     '####' # '####'        



                #########################################################
                #                        -***-                          #
                #          Department of theory and spectroscopy        #
                #                                                       #
                #                      Frank Neese                      #
                #                                                       #
                #     Directorship, Architecture, Infrastructure        #
                #                    SHARK, DRIVERS                     #
                #        Core code/Algorithms in most modules           #
                #                                                       #
                #        Max Planck Institute fuer Kohlenforschung      #
                #                Kaiser Wilhelm Platz 1                 #
                #                 D-45470 Muelheim/Ruhr                 #
                #                      Germany                          #
                #                                                       #
                #                  All rights reserved                  #
                #                        -***-                          #
                #########################################################


                         Program Version 6.0.0  -   RELEASE   -


 With contributions from (in alphabetic order):
   Daniel Aravena         : Magnetic Suceptibility
   Michael Atanasov       : Ab Initio Ligand Field Theory (pilot matlab implementation)
   Alexander A. Auer      : GIAO ZORA, VPT2 properties, NMR spectrum
   Ute Becker             : All parallelization in ORCA, NUMFREQ, NUMCALC
   Giovanni Bistoni       : ED, misc. LED, open-shell LED, HFLD
   Martin Brehm           : Molecular dynamics
   Dmytro Bykov           : pre 5.0 version of the SCF Hessian
   Marcos Casanova-Páez   : Triplet and SCS-CIS(D). UHF-(DLPNO)-IP/EA/STEOM-CCSD. UHF-CVS-IP/STEOM-CCSD
   Vijay G. Chilkuri      : MRCI spin determinant printing, contributions to CSF-ICE
   Pauline Colinet        : FMM embedding
   Dipayan Datta          : RHF DLPNO-CCSD density
   Achintya Kumar Dutta   : EOM-CC, STEOM-CC
   Nicolas Foglia         : Exact transition moments, OPA infrastructure, MCD improvements
   Dmitry Ganyushin       : Spin-Orbit,Spin-Spin,Magnetic field MRCI
   Miquel Garcia          : C-PCM and meta-GGA Hessian, CCSD/C-PCM, Gaussian charge scheme
   Tiago L. C. Gouveia    : GS-ROHF, GS-ROCIS
   Yang Guo               : DLPNO-NEVPT2, F12-NEVPT2, CIM, IAO-localization
   Andreas Hansen         : Spin unrestricted coupled pair/coupled cluster methods
   Ingolf Harden          : AUTO-CI MPn and infrastructure 
   Benjamin Helmich-Paris : MC-RPA, TRAH-(SCF,CASSCF), AVAS, COSX integrals, SCF dyn. polar.
   Lee Huntington         : MR-EOM, pCC
   Robert Izsak           : Overlap fitted RIJCOSX, COSX-SCS-MP3, EOM
   Riya Kayal             : Wick's Theorem for AUTO-CI, AUTO-CI UHF-CCSDT
   Emily Kempfer          : AUTO-CI, RHF CISDT and CCSDT
   Christian Kollmar      : KDIIS, OOCD, Brueckner-CCSD(T), CCSD density, CASPT2, CASPT2-K, improved NEVPT2
   Axel Koslowski         : Symmetry handling
   Simone Kossmann        : Meta GGA functionals, TD-DFT gradient, OOMP2, (MP2 Hessian; deprecated post 5.0)
   Lucas Lang             : DCDCAS
   Marvin Lechner         : AUTO-CI (C++ implementation), FIC-MRCC
   Spencer Leger          : CASSCF response
   Dagmar Lenk            : GEPOL surface, SMD, ORCA-2-JSON
   Dimitrios Liakos       : Extrapolation schemes; Compound Job, initial MDCI parallelization
   Dimitrios Manganas     : Further ROCIS development; embedding schemes. LFT, Crystal Embedding
   Dimitrios Pantazis     : SARC Basis sets
   Anastasios Papadopoulos: AUTO-CI, single reference methods and gradients
   Taras Petrenko         : pre 6.0 DFT Hessian and TD-DFT gradient, (ASA, deprecated), ECA, 1-Electron XAS/XES, NRVS
   Peter Pinski           : DLPNO-MP2, DLPNO-MP2 Gradient
   Christoph Reimann      : Effective Core Potentials
   Marius Retegan         : Local ZFS, SOC
   Christoph Riplinger    : Optimizer, TS searches, QM/MM, DLPNO-CCSD(T), (RO)-DLPNO pert. Triples
   Michael Roemelt        : Original ROCIS implementation
   Masaaki Saitow         : Open-shell DLPNO-CCSD energy and density
   Barbara Sandhoefer     : DKH picture change effects
   Kantharuban Sivalingam : CASSCF convergence/infrastructure, NEVPT2 and variants, FIC-MRCI
   Bernardo de Souza      : ESD, SOC TD-DFT
   Georgi Stoychev        : AutoAux, RI-MP2 NMR, DLPNO-MP2 response, X2C
   Van Anh Tran           : RI-MP2 g-tensors
   Willem Van den Heuvel  : Paramagnetic NMR
   Zikuan Wang            : NOTCH, Electric field optimization 
   Frank Wennmohs         : Technical directorship and infrastructure
   Hang Xu                : AUTO-CI-Response properties 


 We gratefully acknowledge several colleagues who have allowed us to
 interface, adapt or use parts of their codes:
   Stefan Grimme, W. Hujo, H. Kruse, P. Pracht,  : VdW corrections, initial TS optimization,
                  C. Bannwarth, S. Ehlert,         DFT functionals, gCP, sTDA/sTD-DF
                  L. Wittmann, M. Mueller
   Ed Valeev, F. Pavosevic, A. Kumar             : LibInt (2-el integral package), F12 methods
   Garnet Chan, S. Sharma, J. Yang, R. Olivares  : DMRG
   Ulf Ekstrom                                   : XCFun DFT Library
   Mihaly Kallay                                 : mrcc  (arbitrary order and MRCC methods)
   Frank Weinhold                                : gennbo (NPA and NBO analysis)
   Simon Mueller                                 : openCOSMO-RS
   Christopher J. Cramer and Donald G. Truhlar   : smd solvation model
   Lars Goerigk                                  : TD-DFT with DH, B97 family of functionals
   V. Asgeirsson, H. Jonsson                     : NEB implementation
   FAccTs GmbH                                   : IRC, NEB, NEB-TS, DLPNO-Multilevel, CI-OPT
                                                   MM, QMMM, 2- and 3-layer-ONIOM, Crystal-QMMM,
                                                   LR-CPCM, SF, NACMEs, symmetry and pop. for TD-DFT,
                                                   nearIR, NL-DFT gradient (VV10), updates on ESD,
                                                   ML-optimized integration grids, MBIS, APM,
                                                   GOAT, DOCKER, SOLVATOR, interface openCOSMO-RS
   S Lehtola, MJT Oliveira, MAL Marques          : LibXC Library
   Liviu Ungur et al                             : ANISO software


 Your calculation uses the libint2 library for the computation of 2-el integrals
 For citations please refer to: http://libint.valeyev.net

 Your ORCA version has been built with support for libXC version: 6.2.2
 For citations please refer to: https://libxc.gitlab.io

 This ORCA versions uses:
   CBLAS   interface :  Fast vector & matrix operations
   LAPACKE interface :  Fast linear algebra routines
   Shared memory     :  Shared parallel matrices


Your calculation utilizes the geometrical counterpoise correction gCP
Please cite in your paper:
H.Kruse, S. Grimme J.Chem.Phys., 136, (2012), 154101 
   

Your calculation utilizes the atom-pairwise dispersion correction
with the Becke-Johnson damping scheme (D3BJ)


================================================================================

cite the ECPs for I  [Def-ECP] as follows:
 

ECP parameters for I  [Def-ECP] have been obtained from:
TURBOMOLE (7.0.2)

----- Orbital basis set information -----
Your calculation utilizes the basis: MINIX,
   a combination of small basis sets by S. Grimme (see manual for definitions).

================================================================================
                                        WARNINGS
                       Please study these warnings very carefully!
================================================================================


WARNING: Geometry Optimization
  ===> : Switching off AutoStart
         For restart on a previous wavefunction, please use MOREAD

================================================================================
                                       INPUT FILE
================================================================================
NAME = haloligand_TightOptimization.inp
|  1> ! HF-3c Opt TightSCF
|  2> 
|  3> %geom
|  4> 	optimizehydrogens true
|  5> end
|  6> 
|  7> *xyz 0 1
|  8> H 90.922493 97.134789 -46.545330
|  9> H 92.183914 92.192429 -43.641792
| 10> H 90.888481 94.745415 -46.862087
| 11> H 93.449921 97.771004 -44.707966
| 12> H 92.870781 98.204300 -46.333961
| 13> H 93.082275 99.468002 -45.097897
| 14> H 89.671066 99.350357 -44.392143
| 15> H 91.177132 100.294167 -44.481533
| 16> H 89.652809 97.194633 -45.252560
| 17> H 90.412285 99.694290 -45.973064
| 18> H 92.393906 96.716225 -42.383892
| 19> C 91.150002 95.734001 -44.952999
| 20> C 91.511002 95.542999 -43.613998
| 21> C 91.883003 94.282997 -43.152000
| 22> C 90.714996 97.095001 -45.476002
| 23> N 91.397003 98.231003 -44.827000
| 24> C 91.896004 93.176003 -44.013000
| 25> C 91.167000 94.617996 -45.816002
| 26> C 92.791000 98.431999 -45.271000
| 27> C 91.536003 93.348000 -45.351002
| 28> I 92.385002 94.073997 -41.117001
| 29> O 91.524002 96.626999 -42.779999
| 30> I 91.536003 91.734001 -46.681999
| 31> C 90.613998 99.473000 -44.924999
| 32> **                         ****END OF INPUT****
================================================================================

                       *****************************
                       * Geometry Optimization Run *
                       *****************************

Geometry optimization settings:
Update method            Update   .... BFGS
Choice of coordinates    CoordSys .... (2022) Redundant Internals
Initial Hessian          InHess   .... Almloef's Model
Max. no of cycles        MaxIter  .... 72

Convergence Tolerances:
Energy Change            TolE     ....  5.0000e-06 Eh
Max. Gradient            TolMAXG  ....  3.0000e-04 Eh/bohr
RMS Gradient             TolRMSG  ....  1.0000e-04 Eh/bohr
Max. Displacement        TolMAXD  ....  4.0000e-03 bohr
RMS Displacement         TolRMSD  ....  2.0000e-03 bohr
Strict Convergence                .... False

------------------------------------------------------------------------------
                        ORCA OPTIMIZATION COORDINATE SETUP
------------------------------------------------------------------------------

The optimization will be done in redundant internal coordinates (2022)
Making redundant internal coordinates   ...  (2022 redundants) done
Evaluating the initial hessian          ...  (Almloef) done
Evaluating the coordinates              ...  done
Calculating the B-matrix                .... done
Calculating the G-matrix                .... done
Diagonalizing the G-matrix              .... done
Small eigenvalue found = 9.406e-03
Small eigenvalue found = 1.948e-02
The first mode is                       ....   44
The number of degrees of freedom        ....   66
Storing new coordinates                 .... done

    -----------------------------------------------------------------
                    Redundant Internal Coordinates


    -----------------------------------------------------------------
         Definition                    Initial Value    Approx d2E/dq
    -----------------------------------------------------------------
      1. B(C  12,C  11)                  1.3999         0.602476 C 
      2. B(C  13,C  12)                  1.3926         0.618778 C 
      3. B(C  14,H   0)                  1.0900         0.360100   
      4. B(C  14,H   8)                  1.0900         0.360104   
      5. B(C  14,C  11)                  1.5215         0.385368 C 
      6. B(N  15,C  14)                  1.4754         0.408891 C 
      7. B(C  16,H   1)                  1.0900         0.360097   
      8. B(C  16,C  13)                  1.4025         0.596817 C 
      9. B(C  17,H   2)                  1.0900         0.360099   
     10. B(C  17,C  11)                  1.4109         0.578702 C 
     11. B(C  18,H   3)                  1.0900         0.360101   
     12. B(C  18,H   4)                  1.0900         0.360101   
     13. B(C  18,H   5)                  1.0900         0.360095   
     14. B(C  18,N  15)                  1.4767         0.406899 C 
     15. B(C  19,C  16)                  1.3962         0.610680 C 
     16. B(C  19,C  17)                  1.4019         0.598107 C 
     17. B(I  20,C  13)                  2.1064         0.151101 C 
     18. B(O  21,H  10)                  0.9600         0.519961   
     19. B(O  21,C  12)                  1.3678         0.607227 C 
     20. B(I  22,C  19)                  2.0920         0.159296 C 
     21. B(C  23,H   6)                  1.0900         0.360101   
     22. B(C  23,H   7)                  1.0900         0.360102   
     23. B(C  23,H   9)                  1.0900         0.360101   
     24. B(C  23,N  15)                  1.4715         0.414837 C 
     25. A(C  12,C  11,C  14)          121.6379         0.396852 C 
     26. A(C  14,C  11,C  17)          120.0488         0.394059 C 
     27. A(C  12,C  11,C  17)          118.2970         0.426527 C 
     28. A(C  11,C  12,C  13)          120.6399         0.431681 C 
     29. A(C  13,C  12,O  21)          120.8127         0.429466 C 
     30. A(C  11,C  12,O  21)          118.5252         0.427415 C 
     31. A(C  16,C  13,I  20)          120.8359         0.358649 C 
     32. A(C  12,C  13,I  20)          118.2898         0.360863 C 
     33. A(C  12,C  13,C  16)          120.8610         0.430950 C 
     34. A(H   0,C  14,H   8)          112.5368         0.290840   
     35. A(H   8,C  14,C  11)          106.8521         0.325981   
     36. A(H   0,C  14,N  15)          108.3871         0.327203   
     37. A(H   8,C  14,N  15)          106.8522         0.327204   
     38. A(H   0,C  14,C  11)          108.3874         0.325980   
     39. A(C  11,C  14,N  15)          113.9137         0.368675 C 
     40. A(C  14,N  15,C  18)          114.1352         0.369808 C 
     41. A(C  14,N  15,C  23)          112.0003         0.371038 C 
     42. A(C  18,N  15,C  23)          111.5554         0.370727 C 
     43. A(H   1,C  16,C  13)          120.3727         0.350642   
     44. A(H   1,C  16,C  19)          120.3726         0.352005   
     45. A(C  13,C  16,C  19)          119.2547         0.429932 C 
     46. A(H   2,C  17,C  19)          119.4386         0.350770   
     47. A(C  11,C  17,C  19)          121.1225         0.425971 C 
     48. A(H   2,C  17,C  11)          119.4389         0.348823   
     49. A(H   4,C  18,H   5)          109.5032         0.290839   
     50. A(H   3,C  18,N  15)          109.4388         0.326940   
     51. A(H   4,C  18,N  15)          109.5035         0.326940   
     52. A(H   5,C  18,N  15)          109.5037         0.326939   
     53. A(H   3,C  18,H   4)          109.4392         0.290840   
     54. A(H   3,C  18,H   5)          109.4389         0.290839   
     55. A(C  16,C  19,I  22)          120.9746         0.363313 C 
     56. A(C  17,C  19,I  22)          119.2018         0.362025 C 
     57. A(C  16,C  19,C  17)          119.8237         0.430098 C 
     58. A(H  10,O  21,C  12)          109.5036         0.368795   
     59. A(H   6,C  23,H   7)          109.4391         0.290840   
     60. A(H   6,C  23,H   9)          109.4392         0.290840   
     61. A(H   7,C  23,H   9)          109.5031         0.290840   
     62. A(H   6,C  23,N  15)          109.4387         0.327983   
     63. A(H   7,C  23,N  15)          109.5036         0.327983   
     64. A(H   9,C  23,N  15)          109.5036         0.327983   
     65. D(O  21,C  12,C  11,C  17)    178.6109         0.025034 C 
     66. D(C  13,C  12,C  11,C  14)    178.8434         0.025034 C 
     67. D(O  21,C  12,C  11,C  14)     -2.8581         0.025034 C 
     68. D(C  13,C  12,C  11,C  17)      0.3123         0.025034 C 
     69. D(I  20,C  13,C  12,C  11)   -179.1225         0.026488 C 
     70. D(C  16,C  13,C  12,C  11)     -0.4407         0.026488 C 
     71. D(C  16,C  13,C  12,O  21)   -178.7001         0.026488 C 
     72. D(I  20,C  13,C  12,O  21)      2.6181         0.026488 C 
     73. D(H   0,C  14,C  11,C  12)    154.4295         0.011063   
     74. D(H   0,C  14,C  11,C  17)    -27.0648         0.011063   
     75. D(H   8,C  14,C  11,C  12)    -84.0563         0.011063   
     76. D(H   8,C  14,C  11,C  17)     94.4495         0.011063   
     77. D(N  15,C  14,C  11,C  12)     33.6977         0.011063 C 
     78. D(C  18,N  15,C  14,H   0)    -45.3494         0.014264   
     79. D(C  18,N  15,C  14,H   8)   -166.8635         0.014264   
     80. D(C  18,N  15,C  14,C  11)     75.3826         0.014264 C 
     81. D(C  23,N  15,C  14,H   0)     82.6201         0.014264   
     82. D(C  23,N  15,C  14,H   8)    -38.8941         0.014264   
     83. D(H   1,C  16,C  13,C  12)   -179.7044         0.024541   
     84. D(H   1,C  16,C  13,I  20)     -1.0563         0.024541   
     85. D(C  19,C  16,C  13,C  12)      0.2954         0.024541 C 
     86. D(C  19,C  16,C  13,I  20)    178.9435         0.024541 C 
     87. D(H   2,C  17,C  11,C  12)    179.9492         0.023004   
     88. D(H   2,C  17,C  11,C  14)      1.3940         0.023004   
     89. D(C  19,C  17,C  11,C  12)     -0.0506         0.023004 C 
     90. D(C  19,C  17,C  11,C  14)   -178.6058         0.023004 C 
     91. D(H   5,C  18,N  15,C  14)    156.4673         0.014127   
     92. D(H   3,C  18,N  15,C  23)    148.2315         0.014127   
     93. D(H   4,C  18,N  15,C  14)     36.3883         0.014127   
     94. D(H   3,C  18,N  15,C  14)    -83.5723         0.014127   
     95. D(H   4,C  18,N  15,C  23)    -91.8079         0.014127   
     96. D(I  22,C  19,C  17,C  11)    179.8638         0.024653 C 
     97. D(C  17,C  19,C  16,C  13)     -0.0327         0.025759 C 
     98. D(I  22,C  19,C  16,H   1)      0.0167         0.025759   
     99. D(I  22,C  19,C  16,C  13)   -179.9831         0.025759 C 
    100. D(C  16,C  19,C  17,H   2)    179.9126         0.024653   
    101. D(C  16,C  19,C  17,C  11)     -0.0876         0.024653 C 
    102. D(C  17,C  19,C  16,H   1)    179.9671         0.025759   
    103. D(I  22,C  19,C  17,H   2)     -0.1360         0.024653   
    104. D(H  10,O  21,C  12,C  11)   -123.4261         0.026973   
    105. D(H  10,O  21,C  12,C  13)     54.8694         0.026973   
    106. D(H   6,C  23,N  15,C  14)     63.0584         0.014677   
    107. D(H   6,C  23,N  15,C  18)   -167.6129         0.014677   
    108. D(H   7,C  23,N  15,C  14)   -176.9811         0.014677   
    109. D(H   7,C  23,N  15,C  18)    -47.6524         0.014677   
    110. D(H   9,C  23,N  15,C  14)    -56.9023         0.014677   
    -----------------------------------------------------------------

Number of atoms                         .... 24
Number of degrees of freedom            .... 110


         *************************************************************
         *                GEOMETRY OPTIMIZATION CYCLE   1            *
         *************************************************************
---------------------------------
CARTESIAN COORDINATES (ANGSTROEM)
---------------------------------
  H     90.922493   97.134789  -46.545330
  H     92.183914   92.192429  -43.641792
  H     90.888481   94.745415  -46.862087
  H     93.449921   97.771004  -44.707966
  H     92.870781   98.204300  -46.333961
  H     93.082275   99.468002  -45.097897
  H     89.671066   99.350357  -44.392143
  H     91.177132  100.294167  -44.481533
  H     89.652809   97.194633  -45.252560
  H     90.412285   99.694290  -45.973064
  H     92.393906   96.716225  -42.383892
  C     91.150002   95.734001  -44.952999
  C     91.511002   95.542999  -43.613998
  C     91.883003   94.282997  -43.152000
  C     90.714996   97.095001  -45.476002
  N     91.397003   98.231003  -44.827000
  C     91.896004   93.176003  -44.013000
  C     91.167000   94.617996  -45.816002
  C     92.791000   98.431999  -45.271000
  C     91.536003   93.348000  -45.351002
  I     92.385002   94.073997  -41.117001
  O     91.524002   96.626999  -42.779999
  I     91.536003   91.734001  -46.681999
  C     90.613998   99.473000  -44.924999

----------------------------
CARTESIAN COORDINATES (A.U.)
----------------------------
  NO LB      ZA    FRAG     MASS         X           Y           Z
   0 H     1.0000    0     1.008  171.818611  183.558149  -87.957927
   1 H     1.0000    0     1.008  174.202351  174.218442  -82.471035
   2 H     1.0000    0     1.008  171.754338  179.042887  -88.556510
   3 H     1.0000    0     1.008  176.594758  184.760421  -84.485812
   4 H     1.0000    0     1.008  175.500342  185.579232  -87.558497
   5 H     1.0000    0     1.008  175.900008  187.967283  -85.222675
   6 H     1.0000    0     1.008  169.453757  187.744966  -83.888993
   7 H     1.0000    0     1.008  172.299809  189.528508  -84.057915
   8 H     1.0000    0     1.008  169.419256  183.671238  -85.514945
   9 H     1.0000    0     1.008  170.854458  188.394905  -86.876500
  10 H     1.0000    0     1.008  174.599179  182.767178  -80.093948
  11 C     6.0000    0    12.011  172.248541  180.911044  -84.948857
  12 C     6.0000    0    12.011  172.930732  180.550102  -82.418512
  13 C     6.0000    0    12.011  173.633712  178.169043  -81.545462
  14 C     6.0000    0    12.011  171.426499  183.482961  -85.937189
  15 N     7.0000    0    14.007  172.715305  185.629694  -84.710753
  16 C     6.0000    0    12.011  173.658280  176.077128  -83.172516
  17 C     6.0000    0    12.011  172.280662  178.802100  -86.579696
  18 C     6.0000    0    12.011  175.349578  186.009521  -85.549792
  19 C     6.0000    0    12.011  172.977977  176.402155  -85.700974
  20 I     7.0000*   0   126.900  174.582353  177.774091  -77.699871
  21 O     8.0000    0    15.999  172.955298  182.598565  -80.842482
  22 I     7.0000*   0   126.900  172.977977  173.352139  -88.216193
  23 C     6.0000    0    12.011  171.235640  187.976728  -84.895945
* core charge reduced due to ECP

--------------------------------
INTERNAL COORDINATES (ANGSTROEM)
--------------------------------
 H      0   0   0     0.000000000000     0.00000000     0.00000000
 H      1   0   0     5.869296229216     0.00000000     0.00000000
 H      1   2   0     2.410518600855    39.94645766     0.00000000
 H      1   2   3     3.188819262659    73.29895165   214.80276870
 H      4   1   2     1.779609031007    42.62433449   142.63397454
 H      4   1   2     1.779610063492    84.27602075   193.39589833
 H      1   2   3     3.333320470030   108.71329377   144.07651172
 H      7   1   2     1.779607452377    90.13396897   107.75365491
 H      1   2   3     1.812990081907    79.95382849   113.31955714
 H      7   1   2     1.779608586934    53.00456055   158.90254092
 H      4   1   2     2.762072840557    96.06175772   311.03458739
 C      9   1   2     2.113000121011    65.29467866    11.22940824
 C     12   9   1     1.399902297307   114.37070407   143.99100193
 C     13  12   9     1.392634889700   120.63988635   146.22226444
 C      9   1   2     1.089997287041    33.73167246    52.86832346
 N     15   9   1     1.475411023429   106.85223241   118.85129489
 C      2   1   3     1.090002459098     9.90596176   214.75512670
 C      3   1   2     1.090001037682    89.20674081     5.78989446
 C      5   4   1     1.089999050496    35.28042497    81.90088103
 C     17   2  14     1.396220985379   120.37258642   180.00018642
 I     14  13  12     2.106396193977   118.28980294   180.87753881
 O     11   4   1     0.959997397778    91.99188123   349.82076640
 I     20  17   2     2.092019547234   120.97455213     0.00000000
 C      8   7   1     1.089998732569    35.28046583    10.62240116

---------------------------
INTERNAL COORDINATES (A.U.)
---------------------------
 H      0   0   0     0.000000000000     0.00000000     0.00000000
 H      1   0   0    11.091362472074     0.00000000     0.00000000
 H      1   2   0     4.555219996339    39.94645766     0.00000000
 H      1   2   3     6.025995096998    73.29895165   214.80276870
 H      4   1   2     3.362973694056    42.62433449   142.63397454
 H      4   1   2     3.362975645170    84.27602075   193.39589833
 H      1   2   3     6.299062804951   108.71329377   144.07651172
 H      7   1   2     3.362970710878    90.13396897   107.75365491
 H      1   2   3     3.426054738319    79.95382849   113.31955714
 H      7   1   2     3.362972854881    53.00456055   158.90254092
 H      4   1   2     5.219561230594    96.06175772   311.03458739
 C      9   1   2     3.992991549654    65.29467866    11.22940824
 C     12   9   1     2.645431956157   114.37070407   143.99100193
 C     13  12   9     2.631698546076   120.63988635   146.22226444
 C      9   1   2     2.059796359225    33.73167246    52.86832346
 N     15   9   1     2.788122769250   106.85223241   118.85129489
 C      2   1   3     2.059806132996     9.90596176   214.75512670
 C      3   1   2     2.059803446908    89.20674081     5.78989446
 C      5   4   1     2.059799691672    35.28042497    81.90088103
 C     17   2  14     2.638475284801   120.37258642   180.00018642
 I     14  13  12     3.980511936151   118.28980294   180.87753881
 O     11   4   1     1.814132171078    91.99188123   349.82076640
 I     20  17   2     3.953344011083   120.97455213     0.00000000
 C      8   7   1     2.059799090876    35.28046583    10.62240116

---------------------
BASIS SET INFORMATION
---------------------
There are 5 groups of distinct atoms

 Group   1 Type H   : 3s contracted to 1s pattern {3}
 Group   2 Type C   : 6s3p contracted to 2s1p pattern {33/3}
 Group   3 Type N   : 6s3p contracted to 2s1p pattern {33/3}
 Group   4 Type I   : 10s7p6d contracted to 4s4p2d pattern {6211/4111/51}
 Group   5 Type O   : 6s3p contracted to 2s1p pattern {33/3}

Atom   0H    basis set group =>   1
Atom   1H    basis set group =>   1
Atom   2H    basis set group =>   1
Atom   3H    basis set group =>   1
Atom   4H    basis set group =>   1
Atom   5H    basis set group =>   1
Atom   6H    basis set group =>   1
Atom   7H    basis set group =>   1
Atom   8H    basis set group =>   1
Atom   9H    basis set group =>   1
Atom  10H    basis set group =>   1
Atom  11C    basis set group =>   2
Atom  12C    basis set group =>   2
Atom  13C    basis set group =>   2
Atom  14C    basis set group =>   2
Atom  15N    basis set group =>   3
Atom  16C    basis set group =>   2
Atom  17C    basis set group =>   2
Atom  18C    basis set group =>   2
Atom  19C    basis set group =>   2
Atom  20I    basis set group =>   4
Atom  21O    basis set group =>   5
Atom  22I    basis set group =>   4
Atom  23C    basis set group =>   2
-------------------------
ECP PARAMETER INFORMATION
-------------------------

 Group 1, Type I  ECP Def-ECP (replacing 46 core electrons, lmax=3)

Atom  20I    ECP group =>   1
Atom  22I    ECP group =>   1

------------------------------------------------------------------------------
                             ORCA STARTUP CALCULATIONS
------------------------------------------------------------------------------
------------------------------------------------------------------------------
                   ___                                                        
                  /   \      - P O W E R E D   B Y -                         
                 /     \                                                     
                 |  |  |   _    _      __       _____    __    __             
                 |  |  |  | |  | |    /  \     |  _  \  |  |  /  |          
                  \  \/   | |  | |   /    \    | | | |  |  | /  /          
                 / \  \   | |__| |  /  /\  \   | |_| |  |  |/  /          
                |  |  |   |  __  | /  /__\  \  |    /   |      \           
                |  |  |   | |  | | |   __   |  |    \   |  |\   \          
                \     /   | |  | | |  |  |  |  | |\  \  |  | \   \       
                 \___/    |_|  |_| |__|  |__|  |_| \__\ |__|  \__/        
                                                                              
                      - O R C A' S   B I G   F R I E N D -                    
                                      &                                       
                       - I N T E G R A L  F E E D E R -                       
                                                                              
 v1 FN, 2020, v2 2021, v3 2022-2024                                           
------------------------------------------------------------------------------


----------------------
SHARK INTEGRAL PACKAGE
----------------------

Number of atoms                             ...     24
Number of basis functions                   ...    118
Number of shells                            ...     64
Maximum angular momentum                    ...      2
Integral batch strategy                     ... SHARK/LIBINT Hybrid
RI-J (if used) integral strategy            ... SPLIT-RIJ (Revised 2003 algorithm where possible)
Printlevel                                  ...      1
Contraction scheme used                     ... SEGMENTED contraction
Prescreening option                         ... SCHWARTZ
   Thresh                                   ... 2.500e-11
   Tcut                                     ... 2.500e-12
   Tpresel                                  ... 2.500e-12 
Coulomb Range Separation                    ... NOT USED
Exchange Range Separation                   ... NOT USED
Multipole approximations                    ... NOT USED
Finite Nucleus Model                        ... NOT USED
CABS basis                                  ... NOT available
Auxiliary Coulomb fitting basis             ... NOT available
Auxiliary J/K fitting basis                 ... NOT available
Auxiliary Correlation fitting basis         ... NOT available
Auxiliary 'external' fitting basis          ... NOT available

Checking pre-screening integrals            ... done (  0.0 sec) Dimension = 64
Check shell pair data                       ... done (  0.0 sec)
Shell pair information
Shell pair cut-off parameter TPreSel        ...   2.5e-12
Total number of shell pairs                 ...      2080
Shell pairs after pre-screening             ...      1707
Total number of primitive shell pairs       ...     16127
Primitive shell pairs kept                  ...      8455
          la=0 lb=0:    696 shell pairs
          la=1 lb=0:    660 shell pairs
          la=1 lb=1:    170 shell pairs
          la=2 lb=0:    109 shell pairs
          la=2 lb=1:     63 shell pairs
          la=2 lb=2:      9 shell pairs

Calculating one electron integrals          ... done (  0.0 sec)
Calculating ECP integrals                   ... done (  0.1 sec)
Calculating Nuclear repulsion               ... done (  0.0 sec) ENN=    728.962470639984 Eh
Calculating 4-index integrals               ...     -> SHARK/Ints2Disk: Thresh =     2.500000e-11 TCut=    2.500000e-12 
    -> calling libint FockFlag=2 Lmax_loc=2
    -> L=0 1 2 2:     0.083 sec done=      4418 (=100.0%) skipped=         0 
    -> L=0 2 2 2:     0.027 sec done=       710 (=100.0%) skipped=         0 
    -> L=1 1 1 2:     0.098 sec done=      9165 (=100.0%) skipped=         0 
    -> L=1 1 2 2:     0.052 sec done=      1149 (=100.0%) skipped=         0 
    -> L=1 2 1 2:     0.035 sec done=      1589 (=100.0%) skipped=         0 
    -> L=1 2 2 2:     0.039 sec done=       404 (=100.0%) skipped=         0 
    -> L=2 2 2 2:     0.013 sec done=        27 (=100.0%) skipped=         0 
    ->Total LIBINT loop time =    0.348 sec
    -> L=0 0 0 0:     0.107 sec done=    199269 (=100.0%) skipped=         0 
    -> L=1 0 0 0:     0.285 sec done=    383705 (=100.0%) skipped=         0 
    -> L=1 0 1 0:     0.222 sec done=    185016 (=100.0%) skipped=         0 
    -> L=1 1 0 0:     0.117 sec done=    104191 (=100.0%) skipped=         0 
    -> L=1 1 1 0:     0.252 sec done=     99727 (=100.0%) skipped=         0 
    -> L=1 1 1 1:     0.084 sec done=     13329 (=100.0%) skipped=         0 
    -> L=2 0 0 0:     0.057 sec done=     56268 (=100.0%) skipped=         0 
    -> L=2 0 1 0:     0.105 sec done=     54887 (=100.0%) skipped=         0 
    -> L=2 0 1 1:     0.074 sec done=     15231 (=100.0%) skipped=         0 
    -> L=2 0 2 0:     0.015 sec done=      3965 (=100.0%) skipped=         0 
    -> L=2 1 0 0:     0.064 sec done=     35216 (=100.0%) skipped=         0 
    -> L=2 1 1 0:     0.149 sec done=     33997 (=100.0%) skipped=         0 
    -> L=2 1 2 0:     0.046 sec done=      5071 (=100.0%) skipped=         0 
    -> L=2 2 0 0:     0.033 sec done=      4647 (=100.0%) skipped=         0 
    ->Total SHARK integral loop time =    1.610 sec
    -> Total Integral generation matrix time =    1.970 sec
    -> Number of small integrals   =   2324090
    -> Number of medium integrals  =   3542230
    -> Number of large integrals   =   5799422
    -> Number of MB stored         =       108 MB

done (  2.0 sec)

Diagonalization of the overlap matrix:
Smallest eigenvalue                        ... 6.284e-02
Time for diagonalization                   ...    0.002 sec
Threshold for overlap eigenvalues          ... 1.000e-07
Number of eigenvalues below threshold      ... 0
Time for construction of square roots      ...    0.003 sec
Total time needed                          ...    0.006 sec

-------------------
DFT GRID GENERATION
-------------------

General Integration Accuracy     IntAcc      ... 4.388
Radial Grid Type                 RadialGrid  ... OptM3 with GC (2021)
Angular Grid (max. ang.)         AngularGrid ... 4 (Lebedev-302)
Angular grid pruning method      GridPruning ... 4 (adaptive)
Weight generation scheme         WeightScheme... mBecke (2022)
Basis function cutoff            BFCut       ... 1.0000e-11
Integration weight cutoff        WCut        ... 1.0000e-14
Partially contracted basis set               ... off
Rotationally invariant grid construction     ... off
Angular grids for H and He will be reduced by one unit

Total number of grid points                  ...   123565
Total number of batches                      ...     1944
Average number of points per batch           ...       63
Average number of grid points per atom       ...     5149
Initializing property integral containers    ... done (  0.0 sec)

SHARK setup successfully completed in   3.7 seconds

Maximum memory used throughout the entire STARTUP-calculation: 46.2 MB
-------------------------------------------------------------------------------
                                 ORCA GUESS
                   Start orbitals & Density for SCF / CASSCF
-------------------------------------------------------------------------------

------------
SCF SETTINGS
------------
Hamiltonian:
 Ab initio Hamiltonian  Method          .... Hartree-Fock(GTOs)


General Settings:
 Integral files         IntName         .... haloligand_TightOptimization
 Hartree-Fock type      HFTyp           .... RHF
 Total Charge           Charge          ....    0
 Multiplicity           Mult            ....    1
 Number of Electrons    NEL             ....   94
 Basis Dimension        Dim             ....  118
 Nuclear Repulsion      ENuc            ....    728.9624706400 Eh

Convergence Acceleration:
 AO-DIIS                CNVDIIS         .... on
   Start iteration      DIISMaxIt       ....    12
   Startup error        DIISStart       ....  0.200000
   # of expansion vecs  DIISMaxEq       ....     5
   Bias factor          DIISBfac        ....   1.050
   Max. coefficient     DIISMaxC        ....  10.000
 MO-DIIS                CNVKDIIS        .... off
 Trust-Rad. Augm. Hess. CNVTRAH         .... auto
   Auto Start mean grad. ratio tolernc. ....  1.125000
   Auto Start start iteration           ....    50
   Auto Start num. interpolation iter.  ....    10
   Max. Number of Micro iterations      ....    24
   Max. Number of Macro iterations      .... Maxiter - #DIIS iter
   Number of Davidson start vectors     ....     2
   Converg. threshold    (grad. norm)   ....   1.000e-05
   Grad. Scal. Fac. for Micro threshold ....   0.100
   Minimum threshold for Micro iter.    ....   1.000e-02
   NR start threshold (gradient norm)   ....   1.000e-04
   Initial trust radius                 ....   0.400
   Minimum AH scaling param. (alpha)    ....   1.000
   Maximum AH scaling param. (alpha)    .... 1000.000
   Quad. conv. algorithm                .... NR
   White noise on init. David. guess    .... on
   Maximum white noise                  ....   0.010
   Pseudo random numbers                .... off
   Inactive MOs                         .... canonical
   Orbital update algorithm             .... Taylor
   Preconditioner                       .... Diag
   Full preconditioner red. dimension   ....   250
 SOSCF                  CNVSOSCF        .... on
   Start iteration      SOSCFMaxIt      ....   150
   Startup grad/error   SOSCFStart      ....  0.003300
   Hessian update       SOSCFHessUp     .... L-BFGS
 Level Shifting         CNVShift        .... on
   Level shift para.    LevelShift      ....    0.2500
   Turn off err/grad.   ShiftErr        ....    0.0010
 Zerner damping         CNVZerner       .... off
 Static damping         CNVDamp         .... on
   Fraction old density DampFac         ....    0.7000
   Max. Damping (<1)    DampMax         ....    0.9800
   Min. Damping (>=0)   DampMin         ....    0.0000
   Turn off err/grad.   DampErr         ....    0.1000

SCF Procedure:
 Maximum # iterations   MaxIter         ....   125
 SCF integral mode      SCFMode         .... Conventional
 Integral Threshold     Thresh          ....  2.500e-11 Eh
 Primitive CutOff       TCut            ....  2.500e-12 Eh
 Integral Buffer length BufferLength    .... 1048576
 Integral index format  IndFormat       ....     0
 Integral value format  ValFormat       ....     0
 Integral Storage       Thresh          ....  2.500e-11 Eh

Convergence Tolerance:
 Convergence Check Mode ConvCheckMode   .... Total+1el-Energy
 Convergence forced     ConvForced      .... 0
 Energy Change          TolE            ....  1.000e-08 Eh
 1-El. energy change                    ....  1.000e-05 Eh
 Orbital Gradient       TolG            ....  1.000e-05
 Orbital Rotation angle TolX            ....  1.000e-05
 DIIS Error             TolErr          ....  5.000e-07

--------------------------------
INITIAL GUESS: MINIMAL BASIS EHT
--------------------------------
The minimal basis has 74 functions
EHT matrix was diagonalized
Basis set overlap was calculated now projecting the orbitals
Using GuessMode=FMatrix for the initial guess
C*T matrix was formed
Effective Fockian was calculated
Effective Fockian was diagonalized
Initial density was built
                      ------------------
                      INITIAL GUESS DONE
                      ------------------
             **** ENERGY FILE WAS UPDATED (haloligand_TightOptimization.en.tmp) ****
Finished Guess after   0.1 sec
Maximum memory used throughout the entire GUESS-calculation: 7.9 MB

-------------------------------------------------------------------------------------------
                                      ORCA LEAN-SCF
                              memory conserving SCF solver
-------------------------------------------------------------------------------------------


 InCore treatment chosen for four center integrals:
   Memory dedicated               ...    1024 MB
   Memory needed                  ...    108 MB
   Number of tiny    integrals    ... 2324090
   Number of small   integrals    ... 3542230
   Number of regular integrals    ... 5799422

----------------------------------------D-I-I-S--------------------------------------------
Iteration    Energy (Eh)           Delta-E    RMSDP     MaxDP     DIISErr   Damp  Time(sec)
-------------------------------------------------------------------------------------------
    1    -493.2414681757078370     0.00e+00  7.42e-03  1.86e-01  1.75e+00  0.700   0.4
    2    -493.8270892949045674    -5.86e-01  6.44e-03  1.59e-01  1.23e+00  0.700   0.4
    3    -494.2523297229430455    -4.25e-01  4.92e-03  1.20e-01  8.61e-01  0.700   0.3
    4    -494.5571864490069629    -3.05e-01  3.68e-03  8.93e-02  6.03e-01  0.700   0.3
    5    -494.7753283380512812    -2.18e-01  2.77e-03  6.61e-02  4.23e-01  0.700   0.3
    6    -494.9310786238589799    -1.56e-01  2.10e-03  4.90e-02  2.96e-01  0.700   0.4
    7    -495.0420295891109390    -1.11e-01  1.61e-03  3.64e-02  2.08e-01  0.700   0.3
                               ***Turning on AO-DIIS***
    8    -495.1209052271266273    -7.89e-02  1.41e-03  2.97e-02  1.46e-01  0.700   0.4
    9    -495.1769295636471497    -5.60e-02  1.10e-03  2.35e-02  1.02e-01  0.700   0.4
   10    -495.2166744178963427    -3.97e-02  8.38e-04  1.78e-02  7.15e-02  0.700   0.4
   11    -495.2448252724046824    -2.82e-02  2.11e-03  4.40e-02  5.01e-02  0.000   0.3
                              *** Initializing SOSCF ***
---------------------------------------S-O-S-C-F--------------------------------------
Iteration    Energy (Eh)           Delta-E    RMSDP     MaxDP     MaxGrad    Time(sec)
--------------------------------------------------------------------------------------
   12    -495.3120021541948290    -6.72e-02  2.05e-04  4.02e-03  1.50e-03     0.4
   13    -495.3120891822960630    -8.70e-05  1.67e-04  3.86e-03  9.83e-04     0.3
   14    -495.3121308999351413    -4.17e-05  2.05e-04  4.68e-03  4.60e-04     0.3
   15    -495.3121496093809810    -1.87e-05  2.98e-05  1.02e-03  2.40e-04     0.3
   16    -495.3121505104103335    -9.01e-07  2.13e-05  5.35e-04  6.93e-05     0.3
   17    -495.3121507956183223    -2.85e-07  3.85e-06  7.40e-05  1.11e-05     0.3
   18    -495.3121508073783161    -1.18e-08  1.11e-06  2.05e-05  7.14e-06     0.3
   19    -495.3121508091466012    -1.77e-09  3.60e-07  5.50e-06  1.77e-06     0.3
                 **** Energy Check signals convergence ****

               *****************************************************
               *                     SUCCESS                       *
               *           SCF CONVERGED AFTER  19 CYCLES          *
               *****************************************************

             **** ENERGY FILE WAS UPDATED (haloligand_TightOptimization.en.tmp) ****

----------------
TOTAL SCF ENERGY
----------------

Total Energy       :       -495.31215080914660 Eh          -13478.12884 eV

Components:
Nuclear Repulsion  :        728.96247063998351 Eh           19836.07727 eV
Electronic Energy  :      -1224.27462144913011 Eh          -33314.20611 eV
One Electron Energy:      -2126.13623561029544 Eh          -57855.10827 eV
Two Electron Energy:        901.86161416116533 Eh           24540.90216 eV

Virial components:
Potential Energy   :       -973.57985388552106 Eh          -26492.45467 eV
Kinetic Energy     :        478.26770307637440 Eh           13014.32584 eV
Virial Ratio       :          2.03563788151100

---------------
SCF CONVERGENCE
---------------

  Last Energy change         ...    1.7683e-09  Tolerance :   1.0000e-08
  Last MAX-Density change    ...    5.4985e-06  Tolerance :   1.0000e-07
  Last RMS-Density change    ...    3.6029e-07  Tolerance :   5.0000e-09
  Last DIIS Error            ...    1.5024e-03  Tolerance :   5.0000e-07
  Last Orbital Gradient      ...    1.7657e-06  Tolerance :   1.0000e-05
  Last Orbital Rotation      ...    5.2472e-06  Tolerance :   1.0000e-05


----------------
ORBITAL ENERGIES
----------------

  NO   OCC          E(Eh)            E(eV) 
   0   2.0000     -20.362670      -554.0964 
   1   2.0000     -15.374123      -418.3511 
   2   2.0000     -11.282244      -307.0055 
   3   2.0000     -11.232029      -305.6390 
   4   2.0000     -11.231919      -305.6361 
   5   2.0000     -11.218794      -305.2789 
   6   2.0000     -11.215244      -305.1823 
   7   2.0000     -11.212472      -305.1069 
   8   2.0000     -11.209103      -305.0152 
   9   2.0000     -11.181485      -304.2637 
  10   2.0000     -11.178659      -304.1868 
  11   2.0000      -1.395548       -37.9748 
  12   2.0000      -1.219196       -33.1760 
  13   2.0000      -1.188964       -32.3534 
  14   2.0000      -1.075158       -29.2565 
  15   2.0000      -1.055067       -28.7098 
  16   2.0000      -0.962137       -26.1811 
  17   2.0000      -0.953673       -25.9508 
  18   2.0000      -0.914202       -24.8767 
  19   2.0000      -0.903851       -24.5950 
  20   2.0000      -0.841169       -22.8894 
  21   2.0000      -0.811229       -22.0747 
  22   2.0000      -0.783073       -21.3085 
  23   2.0000      -0.728266       -19.8171 
  24   2.0000      -0.694375       -18.8949 
  25   2.0000      -0.654865       -17.8198 
  26   2.0000      -0.649604       -17.6766 
  27   2.0000      -0.636818       -17.3287 
  28   2.0000      -0.622094       -16.9280 
  29   2.0000      -0.591874       -16.1057 
  30   2.0000      -0.582904       -15.8616 
  31   2.0000      -0.570180       -15.5154 
  32   2.0000      -0.562010       -15.2931 
  33   2.0000      -0.542207       -14.7542 
  34   2.0000      -0.531363       -14.4591 
  35   2.0000      -0.519669       -14.1409 
  36   2.0000      -0.504461       -13.7271 
  37   2.0000      -0.497700       -13.5431 
  38   2.0000      -0.470255       -12.7963 
  39   2.0000      -0.464924       -12.6512 
  40   2.0000      -0.430775       -11.7220 
  41   2.0000      -0.391457       -10.6521 
  42   2.0000      -0.378900       -10.3104 
  43   2.0000      -0.376060       -10.2331 
  44   2.0000      -0.347670        -9.4606 
  45   2.0000      -0.329805        -8.9745 
  46   2.0000      -0.326256        -8.8779 
  47   0.0000       0.111501         3.0341 
  48   0.0000       0.140026         3.8103 
  49   0.0000       0.148681         4.0458 
  50   0.0000       0.152360         4.1459 
  51   0.0000       0.366086         9.9617 
  52   0.0000       0.448326        12.1996 
  53   0.0000       0.468709        12.7542 
  54   0.0000       0.487013        13.2523 
  55   0.0000       0.498781        13.5725 
  56   0.0000       0.539794        14.6885 
  57   0.0000       0.566331        15.4106 
*Only the first 10 virtual orbitals were printed.

                    ********************************
                    * MULLIKEN POPULATION ANALYSIS *
                    ********************************

-----------------------
MULLIKEN ATOMIC CHARGES
-----------------------
   0 H :    0.124000
   1 H :    0.164868
   2 H :    0.152352
   3 H :    0.122430
   4 H :    0.113258
   5 H :    0.130731
   6 H :    0.130956
   7 H :    0.129448
   8 H :    0.150137
   9 H :    0.109205
  10 H :    0.337499
  11 C :   -0.012790
  12 C :    0.192846
  13 C :   -0.135715
  14 C :   -0.127809
  15 N :   -0.304456
  16 C :   -0.116719
  17 C :   -0.117318
  18 C :   -0.259301
  19 C :   -0.132923
  20 I :    0.031164
  21 O :   -0.472018
  22 I :    0.044830
  23 C :   -0.254674
Sum of atomic charges:   -0.0000000

--------------------------------
MULLIKEN REDUCED ORBITAL CHARGES
--------------------------------
  0 H s       :     0.876000  s :     0.876000

  1 H s       :     0.835132  s :     0.835132

  2 H s       :     0.847648  s :     0.847648

  3 H s       :     0.877570  s :     0.877570

  4 H s       :     0.886742  s :     0.886742

  5 H s       :     0.869269  s :     0.869269

  6 H s       :     0.869044  s :     0.869044

  7 H s       :     0.870552  s :     0.870552

  8 H s       :     0.849863  s :     0.849863

  9 H s       :     0.890795  s :     0.890795

 10 H s       :     0.662501  s :     0.662501

 11 C s       :     3.047702  s :     3.047702
      pz      :     0.963936  p :     2.965088
      px      :     1.002609
      py      :     0.998543

 12 C s       :     3.007709  s :     3.007709
      pz      :     0.934118  p :     2.799444
      px      :     0.997410
      py      :     0.867916

 13 C s       :     3.123869  s :     3.123869
      pz      :     0.927998  p :     3.011846
      px      :     1.076410
      py      :     1.007438

 14 C s       :     3.117108  s :     3.117108
      pz      :     1.042111  p :     3.010701
      px      :     1.065083
      py      :     0.903507

 15 N s       :     3.436682  s :     3.436682
      pz      :     1.759266  p :     3.867774
      px      :     1.040172
      py      :     1.068336

 16 C s       :     3.085531  s :     3.085531
      pz      :     0.984456  p :     3.031188
      px      :     0.986618
      py      :     1.060114

 17 C s       :     3.087139  s :     3.087139
      pz      :     1.070810  p :     3.030179
      px      :     0.985455
      py      :     0.973914

 18 C s       :     3.147058  s :     3.147058
      pz      :     1.079312  p :     3.112243
      px      :     0.921645
      py      :     1.111286

 19 C s       :     3.124424  s :     3.124424
      pz      :     0.979333  p :     3.008499
      px      :     1.064342
      py      :     0.964824

 20 I s       :     1.924678  s :     1.924678
      pz      :     1.096520  p :     4.996396
      px      :     1.920696
      py      :     1.979179
      dz2     :     0.032091  d :     0.047762
      dxz     :     0.012546
      dyz     :     0.001427
      dx2y2   :     0.001388
      dxy     :     0.000310

 21 O s       :     3.773946  s :     3.773946
      pz      :     1.616752  p :     4.698072
      px      :     1.502207
      py      :     1.579113

 22 I s       :     1.919782  s :     1.919782
      pz      :     1.591770  p :     4.987651
      px      :     1.978227
      py      :     1.417654
      dz2     :     0.001062  d :     0.047737
      dxz     :     0.003711
      dyz     :     0.028111
      dx2y2   :     0.009391
      dxy     :     0.005460

 23 C s       :     3.146933  s :     3.146933
      pz      :     1.097635  p :     3.107741
      px      :     1.058528
      py      :     0.951577



                     *******************************
                     * LOEWDIN POPULATION ANALYSIS *
                     *******************************

----------------------
LOEWDIN ATOMIC CHARGES
----------------------
   0 H :    0.072514
   1 H :    0.110998
   2 H :    0.100019
   3 H :    0.074918
   4 H :    0.066601
   5 H :    0.083656
   6 H :    0.081858
   7 H :    0.081761
   8 H :    0.096892
   9 H :    0.061951
  10 H :    0.254163
  11 C :   -0.013681
  12 C :    0.157843
  13 C :    0.014420
  14 C :   -0.060191
  15 N :   -0.198896
  16 C :   -0.055237
  17 C :   -0.064631
  18 C :   -0.154873
  19 C :    0.035971
  20 I :   -0.138383
  21 O :   -0.326740
  22 I :   -0.131621
  23 C :   -0.149312

-------------------------------
LOEWDIN REDUCED ORBITAL CHARGES
-------------------------------
  0 H s       :     0.927486  s :     0.927486

  1 H s       :     0.889002  s :     0.889002

  2 H s       :     0.899981  s :     0.899981

  3 H s       :     0.925082  s :     0.925082

  4 H s       :     0.933399  s :     0.933399

  5 H s       :     0.916344  s :     0.916344

  6 H s       :     0.918142  s :     0.918142

  7 H s       :     0.918239  s :     0.918239

  8 H s       :     0.903108  s :     0.903108

  9 H s       :     0.938049  s :     0.938049

 10 H s       :     0.745837  s :     0.745837

 11 C s       :     2.952504  s :     2.952504
      pz      :     1.017541  p :     3.061176
      px      :     1.009178
      py      :     1.034458

 12 C s       :     2.931012  s :     2.931012
      pz      :     0.978838  p :     2.911145
      px      :     1.003322
      py      :     0.928985

 13 C s       :     2.952201  s :     2.952201
      pz      :     0.920126  p :     3.033379
      px      :     1.066500
      py      :     1.046753

 14 C s       :     2.975327  s :     2.975327
      pz      :     1.054536  p :     3.084864
      px      :     1.071795
      py      :     0.958533

 15 N s       :     3.268908  s :     3.268908
      pz      :     1.763883  p :     3.929988
      px      :     1.069057
      py      :     1.097048

 16 C s       :     2.966127  s :     2.966127
      pz      :     1.026447  p :     3.089109
      px      :     0.992156
      py      :     1.070507

 17 C s       :     2.971721  s :     2.971721
      pz      :     1.076993  p :     3.092910
      px      :     0.990938
      py      :     1.024980

 18 C s       :     2.992688  s :     2.992688
      pz      :     1.085830  p :     3.162185
      px      :     0.965146
      py      :     1.111209

 19 C s       :     2.944011  s :     2.944011
      pz      :     0.994493  p :     3.020018
      px      :     1.054471
      py      :     0.971053

 20 I s       :     1.923282  s :     1.923282
      pz      :     1.209591  p :     5.129178
      px      :     1.931589
      py      :     1.987998
      dz2     :     0.052252  d :     0.085922
      dxz     :     0.021434
      dyz     :     0.009193
      dx2y2   :     0.002111
      dxy     :     0.000933

 21 O s       :     3.611056  s :     3.611056
      pz      :     1.627089  p :     4.715684
      px      :     1.494080
      py      :     1.594515

 22 I s       :     1.919234  s :     1.919234
      pz      :     1.647697  p :     5.125626
      px      :     1.981822
      py      :     1.496107
      dz2     :     0.007209  d :     0.086761
      dxz     :     0.006464
      dyz     :     0.045700
      dx2y2   :     0.017872
      dxy     :     0.009516

 23 C s       :     2.991843  s :     2.991843
      pz      :     1.100046  p :     3.157470
      px      :     1.070322
      py      :     0.987101



                      *****************************
                      * MAYER POPULATION ANALYSIS *
                      *****************************

  NA   - Mulliken gross atomic population
  ZA   - Total nuclear charge
  QA   - Mulliken gross atomic charge
  VA   - Mayer's total valence
  BVA  - Mayer's bonded valence
  FA   - Mayer's free valence

  ATOM       NA         ZA         QA         VA         BVA        FA
  0 H      0.8760     1.0000     0.1240     0.9846     0.9846    -0.0000
  1 H      0.8351     1.0000     0.1649     0.9728     0.9728    -0.0000
  2 H      0.8476     1.0000     0.1524     0.9768     0.9768    -0.0000
  3 H      0.8776     1.0000     0.1224     0.9850     0.9850    -0.0000
  4 H      0.8867     1.0000     0.1133     0.9872     0.9872     0.0000
  5 H      0.8693     1.0000     0.1307     0.9829     0.9829    -0.0000
  6 H      0.8690     1.0000     0.1310     0.9829     0.9829    -0.0000
  7 H      0.8706     1.0000     0.1294     0.9832     0.9832    -0.0000
  8 H      0.8499     1.0000     0.1501     0.9775     0.9775    -0.0000
  9 H      0.8908     1.0000     0.1092     0.9881     0.9881     0.0000
 10 H      0.6625     1.0000     0.3375     0.8861     0.8861    -0.0000
 11 C      6.0128     6.0000    -0.0128     3.9944     3.9944    -0.0000
 12 C      5.8072     6.0000     0.1928     3.9388     3.9388    -0.0000
 13 C      6.1357     6.0000    -0.1357     3.9643     3.9643    -0.0000
 14 C      6.1278     6.0000    -0.1278     3.9394     3.9394    -0.0000
 15 N      7.3045     7.0000    -0.3045     3.0284     3.0284     0.0000
 16 C      6.1167     6.0000    -0.1167     3.9699     3.9699    -0.0000
 17 C      6.1173     6.0000    -0.1173     3.9738     3.9738    -0.0000
 18 C      6.2593     6.0000    -0.2593     3.9242     3.9242     0.0000
 19 C      6.1329     6.0000    -0.1329     3.9697     3.9697    -0.0000
 20 I      6.9688     7.0000     0.0312     1.0398     1.0398     0.0000
 21 O      8.4720     8.0000    -0.4720     1.9916     1.9916     0.0000
 22 I      6.9552     7.0000     0.0448     1.0235     1.0235    -0.0000
 23 C      6.2547     6.0000    -0.2547     3.9210     3.9210    -0.0000

  Mayer bond orders larger than 0.100000
B(  0-H , 14-C ) :   0.9562 B(  1-H , 16-C ) :   0.9565 B(  2-H , 17-C ) :   0.9596 
B(  3-H , 18-C ) :   0.9690 B(  4-H , 18-C ) :   0.9682 B(  5-H , 18-C ) :   0.9727 
B(  6-H , 23-C ) :   0.9691 B(  7-H , 23-C ) :   0.9712 B(  8-H , 14-C ) :   0.9503 
B(  9-H , 23-C ) :   0.9681 B( 10-H , 21-O ) :   0.8564 B( 11-C , 12-C ) :   1.3720 
B( 11-C , 14-C ) :   0.9990 B( 11-C , 16-C ) :   0.1088 B( 11-C , 17-C ) :   1.4383 
B( 12-C , 13-C ) :   1.4042 B( 12-C , 21-O ) :   1.0156 B( 13-C , 16-C ) :   1.4306 
B( 13-C , 17-C ) :   0.1040 B( 13-C , 20-I ) :   0.9624 B( 14-C , 15-N ) :   0.9835 
B( 15-N , 18-C ) :   0.9828 B( 15-N , 23-C ) :   0.9812 B( 16-C , 19-C ) :   1.4451 
B( 17-C , 19-C ) :   1.4300 B( 19-C , 22-I ) :   0.9680 

-------
TIMINGS
-------

Total SCF time: 0 days 0 hours 0 min 6 sec 

Total time                  ....       6.679 sec
Sum of individual times     ....       6.644 sec  ( 99.5%)

SCF preparation             ....       0.109 sec  (  1.6%)
Fock matrix formation       ....       5.538 sec  ( 82.9%)
  Startup                   ....       0.133 sec  (  2.4% of F)
  Coulomb+Exchange Fock     ....       5.376 sec  ( 97.1% of F)
Diagonalization             ....       0.000 sec  (  0.0%)
Density matrix formation    ....       0.367 sec  (  5.5%)
Total Energy calculation    ....       0.134 sec  (  2.0%)
Population analysis         ....       0.050 sec  (  0.7%)
Orbital Transformation      ....       0.018 sec  (  0.3%)
Orbital Orthonormalization  ....       0.000 sec  (  0.0%)
DIIS solution               ....       0.306 sec  (  4.6%)
SOSCF solution              ....       0.122 sec  (  1.8%)
Finished LeanSCF after   6.7 sec

Maximum memory used throughout the entire LEANSCF-calculation: 164.8 MB


-------------------------------------------------------------------------------
                          DFT DISPERSION CORRECTION                            
                                                                               
                              DFTD3 V3.1  Rev 1                                
                          USING Becke-Johnson damping                          
-------------------------------------------------------------------------------
Hartree-Fock is recognized
Active option DFTDOPT                   ...         4   

molecular C6(AA) [au] = 11309.462706 


            DFT-D V3
 parameters
 using HF/MINIX parameters
 s6 scaling factor         :     1.0000 
 a1 scaling factor         :     0.4171 
 s8 scaling factor         :     0.8777 
 a2 scaling factor         :     2.9149 
 ad hoc parameters k1-k3   :    16.0000     1.3333    -4.0000 

 Edisp/kcal,au: -81.412986948190  -0.129739839204 
 E6   /kcal   : -43.746193512 
 E8   /kcal   : -37.666793437 
 % E8         :  46.266320459 

-------------------------   ----------------
Dispersion correction           -0.129739839
-------------------------   ----------------

 ** NOTE ** -> element i  will be treated as br
 ** NOTE ** -> element i  will be treated as br
NOTIFICATION: Different basis set in ORCA and otool_gcp:
ORCA: 118  gCP: 130 
If you are NOT using ECPs, check your basis set inputs!
------------------   -----------------
gCP+bas correction        -0.053338379
------------------   -----------------
----------------------------   ----------------
Total correction to HF/MINIX       -0.183078218
----------------------------   ----------------


-------------------------   --------------------
FINAL SINGLE POINT ENERGY      -495.495229026950
-------------------------   --------------------

------------------------------------------------------------------------------
                         ORCA SCF GRADIENT CALCULATION
------------------------------------------------------------------------------

Nuc. rep. gradient        (SHARK) ... done (  0.0 sec)
HCore & Overlap gradient  (SHARK) ... done (  0.2 sec)
ECP gradient              (SHARK) ... done (  0.4 sec)
Two-electron gradient     (SHARK) ... done (  8.7 sec)
Dispersion correction             ... done (  0.1 sec)

-------------------
DISPERSION GRADIENT
-------------------

   1   H   :   -0.000614361    0.000047412   -0.001554640
   2   H   :    0.000276012   -0.000917433    0.000350005
   3   H   :   -0.000332239    0.000183289   -0.001035828
   4   H   :    0.001534564    0.000240546    0.000005023
   5   H   :    0.001306350    0.000256962   -0.000987726
   6   H   :    0.001303340    0.000606117   -0.000052852
   7   H   :   -0.000936664    0.000849481    0.000538484
   8   H   :   -0.000357855    0.001230053    0.000471998
   9   H   :   -0.001581072   -0.000272913   -0.000330483
  10   H   :   -0.000770316    0.001254706   -0.000717122
  11   H   :    0.000285060    0.001145111    0.000594835
  12   C   :   -0.000834367   -0.000640090   -0.000459736
  13   C   :    0.000288305   -0.001934878    0.001332713
  14   C   :    0.000261670   -0.000778646    0.001230451
  15   C   :   -0.001543900   -0.000668565   -0.001001948
  16   N   :   -0.000076509    0.001356797    0.000003487
  17   C   :   -0.000019007   -0.000159296   -0.000082192
  18   C   :    0.000151514   -0.001524974   -0.000146857
  19   C   :    0.002645231    0.000847009   -0.000409754
  20   C   :   -0.000002302   -0.001249359   -0.000971038
  21   I   :    0.000452121   -0.001326013    0.002100918
  22   O   :   -0.000203269    0.000940334    0.001732480
  23   I   :    0.000058661   -0.001615846   -0.001060920
  24   C   :   -0.001290968    0.002130196    0.000450701

Difference to translation invariance:
           :    0.0000000000   -0.0000000000   -0.0000000000

Difference to rotation invariance:
           :    0.0000000000    0.0000000000   -0.0000000000

Norm of the Dispersion gradient    ...    0.0084367378
RMS gradient                       ...    0.0009942791
MAX gradient                       ...    0.0026452309
gCP correction                   ... done

------------------
CARTESIAN GRADIENT
------------------

   1   H   :    0.011990142    0.004613523    0.003793791
   2   H   :    0.002124535   -0.007874763    0.002120934
   3   H   :   -0.002498739   -0.000234603   -0.008427330
   4   H   :   -0.002627258   -0.000804367    0.003433381
   5   H   :   -0.007844128   -0.002537959    0.001716755
   6   H   :   -0.001537994    0.004711595   -0.000161760
   7   H   :   -0.000572672   -0.002187789    0.000994134
   8   H   :    0.003423355    0.001766602    0.000349524
   9   H   :    0.002064347   -0.001243815    0.008306331
  10   H   :    0.004538981   -0.008594589    0.000348600
  11   H   :   -0.017308305   -0.006609369   -0.012897387
  12   C   :   -0.006066146    0.031527512    0.012565294
  13   C   :   -0.006363935   -0.014209773    0.000926515
  14   C   :    0.003491777    0.017315623    0.015585160
  15   C   :   -0.013910332   -0.016180696   -0.013408567
  16   N   :   -0.001932632   -0.011290837    0.004550670
  17   C   :   -0.001014759    0.001155270   -0.003747318
  18   C   :    0.001782508   -0.007755730   -0.006407906
  19   C   :    0.012576468    0.010991427   -0.003112920
  20   C   :    0.001708823   -0.023169200   -0.013058736
  21   I   :   -0.001390415    0.001432824   -0.000649087
  22   O   :    0.020928894    0.011042506    0.000672948
  23   I   :   -0.000589738    0.007088425    0.004032935
  24   C   :   -0.000972779    0.011048183    0.002474038

Difference to translation invariance:
           :   -0.0000000003   -0.0000000003    0.0000000002

Difference to rotation invariance:
           :   -0.0000006802    0.0000006999    0.0000003392

Norm of the Cartesian gradient     ...    0.0761388193
RMS gradient                       ...    0.0089730459
MAX gradient                       ...    0.0315275123

-------
TIMINGS
-------

Total SCF gradient time     ....        9.385 sec

Densities                   ....       0.001 sec  (  0.0%)
One electron gradient       ....       0.195 sec  (  2.1%)
Two electron gradient       ....       8.689 sec  ( 92.6%)

Maximum memory used throughout the entire SCFGRAD-calculation: 28.2 MB
------------------------------------------------------------------------------
                         ORCA GEOMETRY RELAXATION STEP
------------------------------------------------------------------------------

Reading the OPT-File                    .... done
Getting information on internals        .... done
Copying old internal coords+grads       .... done
Making the new internal coordinates     .... (2022 redundants) done
Validating the new internal coordinates .... (2022 redundants) done
Calculating the B-matrix                .... done
Calculating the G,G- and P matrices     .... done
Transforming gradient to internals      .... done
Projecting the internal gradient        .... done
Number of atoms                         ....  24
Number of internal coordinates          .... 110
Current Energy                          ....  -495.495229027 Eh
Current gradient norm                   ....     0.076138819 Eh/bohr
Maximum allowed component of the step   ....  0.300
Current trust radius                    ....  0.300
Evaluating the initial hessian          ....  (Almloef) done
Projecting the Hessian                  .... done
Forming the augmented Hessian           .... done
Diagonalizing the augmented Hessian     .... done
Last element of RFO vector              ....  0.967608391
Lowest eigenvalues of augmented Hessian:
 -0.005879317  0.014512483  0.015171178  0.023835110  0.025150279
Length of the computed step             ....  0.260907142
The final length of the internal step   ....  0.260907142
Converting the step to Cartesian space:
 Initial RMS(Int)=    0.0248765199
Transforming coordinates:
 Iter   0:  RMS(Cart)=    0.0435771377 RMS(Int)=    0.5988922211
 Iter   5:  RMS(Cart)=    0.0000001073 RMS(Int)=    0.0000000855
Imposing constraints:
 Iter   0:  RMS(Cart)=    0.0001322024 RMS(Int)=    0.0000168828
 Iter   5:  RMS(Cart)=    0.0000076380 RMS(Int)=    0.0000034337
 Iter  10:  RMS(Cart)=    0.0000019630 RMS(Int)=    0.0000017361
 Iter  15:  RMS(Cart)=    0.0000008837 RMS(Int)=    0.0000011248
 Iter  20:  RMS(Cart)=    0.0000005387 RMS(Int)=    0.0000007488
 Iter  25:  RMS(Cart)=    0.0000003522 RMS(Int)=    0.0000004996
 Iter  30:  RMS(Cart)=    0.0000002338 RMS(Int)=    0.0000003334
 Iter  35:  RMS(Cart)=    0.0000001558 RMS(Int)=    0.0000002225
 Iter  40:  RMS(Cart)=    0.0000001039 RMS(Int)=    0.0000001485
 Iter  45:  RMS(Cart)=    0.0000000694 RMS(Int)=    0.0000000991
CONVERGED
done
Storing new coordinates                 .... done

                                .--------------------.
          ----------------------|Geometry convergence|-------------------------
          Item                value                   Tolerance       Converged
          ---------------------------------------------------------------------
          RMS gradient        0.0037249292            0.0001000000      NO
          MAX gradient        0.0216198987            0.0003000000      NO
          RMS step            0.0248765199            0.0020000000      NO
          MAX step            0.0968335870            0.0040000000      NO
          ........................................................
          Max(Bonds)      0.0218      Max(Angles)    3.01
          Max(Dihed)        5.55      Max(Improp)    0.00
          ---------------------------------------------------------------------

The optimization has not yet converged - more geometry cycles are needed


    ---------------------------------------------------------------------------
                         Redundant Internal Coordinates
                            (Angstroem and degrees)

        Definition                    Value    dE/dq     Step     New-Value
    ----------------------------------------------------------------------------
     1. B(C  12,C  11)                1.3999 -0.010653  0.0000    1.3999 C 
     2. B(C  13,C  12)                1.3926 -0.006673  0.0000    1.3926 C 
     3. B(C  14,H   0)                1.0900 -0.001271  0.0018    1.0918   
     4. B(C  14,H   8)                1.0900 -0.000423  0.0006    1.0906   
     5. B(C  14,C  11)                1.5215 -0.013361 -0.0000    1.5215 C 
     6. B(N  15,C  14)                1.4754  0.009383  0.0000    1.4754 C 
     7. B(C  16,H   1)                1.0900  0.008389 -0.0121    1.0779   
     8. B(C  16,C  13)                1.4025  0.017581 -0.0000    1.4025 C 
     9. B(C  17,H   2)                1.0900  0.008699 -0.0126    1.0774   
    10. B(C  17,C  11)                1.4109  0.022398  0.0000    1.4109 C 
    11. B(C  18,H   3)                1.0900  0.000673 -0.0010    1.0890   
    12. B(C  18,H   4)                1.0900 -0.001718  0.0025    1.0925   
    13. B(C  18,H   5)                1.0900  0.004042 -0.0058    1.0842   
    14. B(C  18,N  15)                1.4767  0.001654 -0.0000    1.4767 C 
    15. B(C  19,C  16)                1.3962  0.012467 -0.0000    1.3962 C 
    16. B(C  19,C  17)                1.4019  0.012922 -0.0000    1.4019 C 
    17. B(I  20,C  13)                2.1064 -0.001101  0.0000    2.1064 C 
    18. B(O  21,H  10)                0.9600 -0.021620  0.0218    0.9818   
    19. B(O  21,C  12)                1.3678 -0.003906 -0.0000    1.3678 C 
    20. B(I  22,C  19)                2.0920 -0.008035 -0.0000    2.0920 C 
    21. B(C  23,H   6)                1.0900  0.001228 -0.0018    1.0882   
    22. B(C  23,H   7)                1.0900  0.003242 -0.0047    1.0853   
    23. B(C  23,H   9)                1.0900 -0.002920  0.0042    1.0942   
    24. B(C  23,N  15)                1.4715 -0.001977  0.0000    1.4715 C 
    25. A(C  12,C  11,C  14)          121.64 -0.016859   -0.00    121.64 C 
    26. A(C  14,C  11,C  17)          120.05  0.016884   -0.00    120.05 C 
    27. A(C  12,C  11,C  17)          118.30 -0.000034   -0.00    118.30 C 
    28. A(C  11,C  12,C  13)          120.64  0.010722    0.00    120.64 C 
    29. A(C  13,C  12,O  21)          120.81  0.005387   -0.00    120.81 C 
    30. A(C  11,C  12,O  21)          118.53 -0.016254   -0.00    118.53 C 
    31. A(C  16,C  13,I  20)          120.84  0.005402    0.00    120.84 C 
    32. A(C  12,C  13,I  20)          118.29 -0.000788    0.00    118.29 C 
    33. A(C  12,C  13,C  16)          120.86 -0.004615    0.00    120.86 C 
    34. A(H   0,C  14,H   8)          112.54  0.006781   -3.01    109.53   
    35. A(H   8,C  14,C  11)          106.85 -0.002441    0.38    107.23   
    36. A(H   0,C  14,N  15)          108.39 -0.001385    2.33    110.71   
    37. A(H   8,C  14,N  15)          106.85 -0.003644    0.17    107.03   
    38. A(H   0,C  14,C  11)          108.39  0.005351   -0.04    108.34   
    39. A(C  11,C  14,N  15)          113.91 -0.004579    0.00    113.91 C 
    40. A(C  14,N  15,C  18)          114.14  0.008353   -0.00    114.14 C 
    41. A(C  14,N  15,C  23)          112.00  0.001294    0.00    112.00 C 
    42. A(C  18,N  15,C  23)          111.56 -0.010338   -0.00    111.56 C 
    43. A(H   1,C  16,C  13)          120.37 -0.000483   -0.13    120.24   
    44. A(H   1,C  16,C  19)          120.37 -0.002133    0.13    120.50   
    45. A(C  13,C  16,C  19)          119.25  0.002616   -0.00    119.25 C 
    46. A(H   2,C  17,C  19)          119.44  0.000484    0.20    119.64   
    47. A(C  11,C  17,C  19)          121.12 -0.003415    0.00    121.12 C 
    48. A(H   2,C  17,C  11)          119.44  0.002931   -0.20    119.24   
    49. A(H   4,C  18,H   5)          109.50  0.004456   -0.68    108.82   
    50. A(H   3,C  18,N  15)          109.44 -0.003171    0.54    109.98   
    51. A(H   4,C  18,N  15)          109.50 -0.011447    2.15    111.66   
    52. A(H   5,C  18,N  15)          109.50 -0.000287    0.02    109.52   
    53. A(H   3,C  18,H   4)          109.44  0.006267   -0.98    108.46   
    54. A(H   3,C  18,H   5)          109.44  0.004191   -1.05    108.39   
    55. A(C  16,C  19,I  22)          120.97  0.005625    0.00    120.97 C 
    56. A(C  17,C  19,I  22)          119.20 -0.000348    0.00    119.20 C 
    57. A(C  16,C  19,C  17)          119.82 -0.005277   -0.00    119.82 C 
    58. A(H  10,O  21,C  12)          109.50 -0.011641    1.78    111.28   
    59. A(H   6,C  23,H   7)          109.44  0.002735   -0.98    108.46   
    60. A(H   6,C  23,H   9)          109.44  0.004638   -0.65    108.79   
    61. A(H   7,C  23,H   9)          109.50  0.005923   -0.79    108.71   
    62. A(H   6,C  23,N  15)          109.44 -0.000719    0.03    109.47   
    63. A(H   7,C  23,N  15)          109.50  0.001196   -0.25    109.26   
    64. A(H   9,C  23,N  15)          109.50 -0.013765    2.63    112.13   
    65. D(O  21,C  12,C  11,C  17)    178.61 -0.005702   -0.00    178.61 C 
    66. D(C  13,C  12,C  11,C  14)    178.84 -0.000382   -0.00    178.84 C 
    67. D(O  21,C  12,C  11,C  14)     -2.86 -0.005867   -0.00     -2.86 C 
    68. D(C  13,C  12,C  11,C  17)      0.31 -0.000218    0.00      0.31 C 
    69. D(I  20,C  13,C  12,C  11)   -179.12 -0.000721   -0.00   -179.12 C 
    70. D(C  16,C  13,C  12,C  11)     -0.44 -0.000664   -0.00     -0.44 C 
    71. D(C  16,C  13,C  12,O  21)   -178.70  0.005313    0.00   -178.70 C 
    72. D(I  20,C  13,C  12,O  21)      2.62  0.005256    0.00      2.62 C 
    73. D(H   0,C  14,C  11,C  12)    154.43 -0.008343    2.93    157.36   
    74. D(H   0,C  14,C  11,C  17)    -27.06 -0.008766    2.93    -24.13   
    75. D(H   8,C  14,C  11,C  12)    -84.06  0.001333   -0.47    -84.52   
    76. D(H   8,C  14,C  11,C  17)     94.45  0.000910   -0.47     93.98   
    77. D(N  15,C  14,C  11,C  12)     33.70 -0.007420   -0.00     33.70 C 
    78. D(C  18,N  15,C  14,H   0)    -45.35  0.004979   -1.60    -46.95   
    79. D(C  18,N  15,C  14,H   8)   -166.86 -0.000238    0.58   -166.28   
    80. D(C  18,N  15,C  14,C  11)     75.38  0.007822    0.00     75.38 C 
    81. D(C  23,N  15,C  14,H   0)     82.62 -0.001090   -1.60     81.02   
    82. D(C  23,N  15,C  14,H   8)    -38.89 -0.006307    0.58    -38.31   
    83. D(H   1,C  16,C  13,C  12)   -179.70  0.000316    0.02   -179.68   
    84. D(H   1,C  16,C  13,I  20)     -1.06  0.000289    0.02     -1.04   
    85. D(C  19,C  16,C  13,C  12)      0.30  0.000987   -0.00      0.30 C 
    86. D(C  19,C  16,C  13,I  20)    178.94  0.000959    0.00    178.94 C 
    87. D(H   2,C  17,C  11,C  12)    179.95 -0.000256    0.42    180.37   
    88. D(H   2,C  17,C  11,C  14)      1.39  0.000414    0.42      1.81   
    89. D(C  19,C  17,C  11,C  12)     -0.05  0.000804    0.00     -0.05 C 
    90. D(C  19,C  17,C  11,C  14)   -178.61  0.001475   -0.00   -178.61 C 
    91. D(H   5,C  18,N  15,C  14)    156.47 -0.003707    5.55    162.02   
    92. D(H   3,C  18,N  15,C  23)    148.23 -0.000527    4.60    152.84   
    93. D(H   4,C  18,N  15,C  14)     36.39 -0.001960    5.05     41.44   
    94. D(H   3,C  18,N  15,C  14)    -83.57 -0.000692    4.60    -78.97   
    95. D(H   4,C  18,N  15,C  23)    -91.81 -0.001795    5.05    -86.76   
    96. D(I  22,C  19,C  17,C  11)    179.86 -0.000663    0.00    179.86 C 
    97. D(C  17,C  19,C  16,C  13)     -0.03 -0.000467   -0.00     -0.03 C 
    98. D(I  22,C  19,C  16,H   1)      0.02  0.000446   -0.02     -0.00   
    99. D(I  22,C  19,C  16,C  13)   -179.98 -0.000225    0.00   -179.98 C 
   100. D(C  16,C  19,C  17,H   2)    179.91  0.000632   -0.42    179.49   
   101. D(C  16,C  19,C  17,C  11)     -0.09 -0.000428   -0.00     -0.09 C 
   102. D(C  17,C  19,C  16,H   1)    179.97  0.000204   -0.02    179.95   
   103. D(I  22,C  19,C  17,H   2)     -0.14  0.000398   -0.42     -0.56   
   104. D(H  10,O  21,C  12,C  11)   -123.43  0.003558   -1.50   -124.92   
   105. D(H  10,O  21,C  12,C  13)     54.87 -0.001842   -1.50     53.37   
[...]

  7 H s       :     0.869680  s :     0.869680

  8 H s       :     0.855599  s :     0.855599

  9 H s       :     0.890585  s :     0.890585

 10 H s       :     0.663882  s :     0.663882

 11 C s       :     3.042365  s :     3.042365
      pz      :     0.959676  p :     2.974955
      px      :     1.014890
      py      :     1.000389

 12 C s       :     3.009932  s :     3.009932
      pz      :     0.954213  p :     2.784271
      px      :     0.969408
      py      :     0.860649

 13 C s       :     3.115078  s :     3.115078
      pz      :     0.918233  p :     3.027962
      px      :     1.102035
      py      :     1.007695

 14 C s       :     3.114473  s :     3.114473
      pz      :     1.051967  p :     3.011934
      px      :     1.057502
      py      :     0.902465

 15 N s       :     3.444085  s :     3.444085
      pz      :     1.744753  p :     3.853674
      px      :     1.047159
      py      :     1.061761

 16 C s       :     3.085020  s :     3.085020
      pz      :     0.988298  p :     3.027950
      px      :     0.980556
      py      :     1.059096

 17 C s       :     3.087104  s :     3.087104
      pz      :     1.070211  p :     3.026562
      px      :     0.979715
      py      :     0.976636

 18 C s       :     3.145362  s :     3.145362
      pz      :     1.074934  p :     3.112947
      px      :     0.920004
      py      :     1.118009

 19 C s       :     3.120466  s :     3.120466
      pz      :     0.978907  p :     3.017270
      px      :     1.077979
      py      :     0.960384

 20 I s       :     1.924969  s :     1.924969
      pz      :     1.120351  p :     5.004946
      px      :     1.911424
      py      :     1.973171
      dz2     :     0.030760  d :     0.049592
      dxz     :     0.014776
      dyz     :     0.001541
      dx2y2   :     0.001991
      dxy     :     0.000525

 21 O s       :     3.768253  s :     3.768253
      pz      :     1.261356  p :     4.694705
      px      :     1.879172
      py      :     1.554177

 22 I s       :     1.919686  s :     1.919686
      pz      :     1.608754  p :     4.990982
      px      :     1.978601
      py      :     1.403628
      dz2     :     0.001116  d :     0.047955
      dxz     :     0.003558
      dyz     :     0.027671
      dx2y2   :     0.009835
      dxy     :     0.005775

 23 C s       :     3.144655  s :     3.144655
      pz      :     1.099398  p :     3.112247
      px      :     1.055491
      py      :     0.957358



                     *******************************
                     * LOEWDIN POPULATION ANALYSIS *
                     *******************************

----------------------
LOEWDIN ATOMIC CHARGES
----------------------
   0 H :    0.070852
   1 H :    0.109978
   2 H :    0.100122
   3 H :    0.081751
   4 H :    0.062661
   5 H :    0.082354
   6 H :    0.079853
   7 H :    0.081823
   8 H :    0.092240
   9 H :    0.062152
  10 H :    0.258949
  11 C :   -0.020659
  12 C :    0.172006
  13 C :    0.001453
  14 C :   -0.060308
  15 N :   -0.189885
  16 C :   -0.049560
  17 C :   -0.058515
  18 C :   -0.153242
  19 C :    0.028210
  20 I :   -0.144677
  21 O :   -0.321155
  22 I :   -0.134566
  23 C :   -0.151838

-------------------------------
LOEWDIN REDUCED ORBITAL CHARGES
-------------------------------
  0 H s       :     0.929148  s :     0.929148

  1 H s       :     0.890022  s :     0.890022

  2 H s       :     0.899878  s :     0.899878

  3 H s       :     0.918249  s :     0.918249

  4 H s       :     0.937339  s :     0.937339

  5 H s       :     0.917646  s :     0.917646

  6 H s       :     0.920147  s :     0.920147

  7 H s       :     0.918177  s :     0.918177

  8 H s       :     0.907760  s :     0.907760

  9 H s       :     0.937848  s :     0.937848

 10 H s       :     0.741051  s :     0.741051

 11 C s       :     2.948430  s :     2.948430
      pz      :     1.014252  p :     3.072229
      px      :     1.021812
      py      :     1.036165

 12 C s       :     2.932826  s :     2.932826
      pz      :     0.995513  p :     2.895169
      px      :     0.977295
      py      :     0.922360

 13 C s       :     2.946456  s :     2.946456
      pz      :     0.913554  p :     3.052091
      px      :     1.090986
      py      :     1.047550

 14 C s       :     2.973577  s :     2.973577
      pz      :     1.062507  p :     3.086731
      px      :     1.066774
      py      :     0.957450

 15 N s       :     3.275318  s :     3.275318
      pz      :     1.748696  p :     3.914568
      px      :     1.075163
      py      :     1.090709

 16 C s       :     2.964616  s :     2.964616
      pz      :     1.028094  p :     3.084944
      px      :     0.986787
      py      :     1.070063

 17 C s       :     2.970449  s :     2.970449
      pz      :     1.076053  p :     3.088066
      px      :     0.985234
      py      :     1.026778

 18 C s       :     2.990510  s :     2.990510
      pz      :     1.082453  p :     3.162732
      px      :     0.963153
      py      :     1.117126

 19 C s       :     2.941361  s :     2.941361
      pz      :     0.994840  p :     3.030428
      px      :     1.068828
      py      :     0.966761

 20 I s       :     1.922262  s :     1.922262
      pz      :     1.231019  p :     5.134371
      px      :     1.923071
      py      :     1.980281
      dz2     :     0.050033  d :     0.088044
      dxz     :     0.024197
      dyz     :     0.009132
      dx2y2   :     0.003276
      dxy     :     0.001406

 21 O s       :     3.611611  s :     3.611611
      pz      :     1.265844  p :     4.709545
      px      :     1.875635
      py      :     1.568066

 22 I s       :     1.919101  s :     1.919101
      pz      :     1.662391  p :     5.128508
      px      :     1.982363
      py      :     1.483754
      dz2     :     0.007035  d :     0.086957
      dxz     :     0.006293
      dyz     :     0.044989
      dx2y2   :     0.018603
      dxy     :     0.010037

 23 C s       :     2.989794  s :     2.989794
      pz      :     1.102095  p :     3.162044
      px      :     1.068106
      py      :     0.991842



                      *****************************
                      * MAYER POPULATION ANALYSIS *
                      *****************************

  NA   - Mulliken gross atomic population
  ZA   - Total nuclear charge
  QA   - Mulliken gross atomic charge
  VA   - Mayer's total valence
  BVA  - Mayer's bonded valence
  FA   - Mayer's free valence

  ATOM       NA         ZA         QA         VA         BVA        FA
  0 H      0.8775     1.0000     0.1225     0.9850     0.9850     0.0000
  1 H      0.8355     1.0000     0.1645     0.9729     0.9729     0.0000
  2 H      0.8465     1.0000     0.1535     0.9764     0.9764    -0.0000
  3 H      0.8699     1.0000     0.1301     0.9831     0.9831    -0.0000
  4 H      0.8903     1.0000     0.1097     0.9880     0.9880     0.0000
  5 H      0.8690     1.0000     0.1310     0.9828     0.9828    -0.0000
  6 H      0.8720     1.0000     0.1280     0.9836     0.9836     0.0000
  7 H      0.8697     1.0000     0.1303     0.9830     0.9830     0.0000
  8 H      0.8556     1.0000     0.1444     0.9791     0.9791     0.0000
  9 H      0.8906     1.0000     0.1094     0.9880     0.9880     0.0000
 10 H      0.6639     1.0000     0.3361     0.8870     0.8870     0.0000
 11 C      6.0173     6.0000    -0.0173     3.9930     3.9930     0.0000
 12 C      5.7942     6.0000     0.2058     3.9351     3.9351     0.0000
 13 C      6.1430     6.0000    -0.1430     3.9558     3.9558     0.0000
 14 C      6.1264     6.0000    -0.1264     3.9412     3.9412     0.0000
 15 N      7.2978     7.0000    -0.2978     3.0407     3.0407    -0.0000
 16 C      6.1130     6.0000    -0.1130     3.9698     3.9698     0.0000
 17 C      6.1137     6.0000    -0.1137     3.9734     3.9734    -0.0000
 18 C      6.2583     6.0000    -0.2583     3.9212     3.9212    -0.0000
 19 C      6.1377     6.0000    -0.1377     3.9676     3.9676     0.0000
 20 I      6.9795     7.0000     0.0205     1.0460     1.0460    -0.0000
 21 O      8.4630     8.0000    -0.4630     2.0316     2.0316     0.0000
 22 I      6.9586     7.0000     0.0414     1.0219     1.0219    -0.0000
 23 C      6.2569     6.0000    -0.2569     3.9216     3.9216     0.0000

  Mayer bond orders larger than 0.100000
B(  0-H , 14-C ) :   0.9550 B(  1-H , 16-C ) :   0.9573 B(  2-H , 17-C ) :   0.9597 
B(  3-H , 18-C ) :   0.9704 B(  4-H , 18-C ) :   0.9662 B(  5-H , 18-C ) :   0.9702 
B(  6-H , 23-C ) :   0.9704 B(  7-H , 23-C ) :   0.9702 B(  8-H , 14-C ) :   0.9508 
B(  9-H , 23-C ) :   0.9656 B( 10-H , 21-O ) :   0.8497 B( 11-C , 12-C ) :   1.3534 
B( 11-C , 14-C ) :   0.9993 B( 11-C , 16-C ) :   0.1086 B( 11-C , 17-C ) :   1.4488 
B( 12-C , 13-C ) :   1.3935 B( 12-C , 21-O ) :   1.0441 B( 13-C , 16-C ) :   1.4264 
B( 13-C , 17-C ) :   0.1003 B( 13-C , 20-I ) :   0.9626 B( 14-C , 15-N ) :   0.9857 
B( 15-N , 18-C ) :   0.9834 B( 15-N , 23-C ) :   0.9842 B( 16-C , 19-C ) :   1.4490 
B( 17-C , 19-C ) :   1.4217 B( 19-C , 22-I ) :   0.9676 

-------
TIMINGS
-------

Total SCF time: 0 days 0 hours 0 min 1 sec 

Total time                  ....       1.564 sec
Sum of individual times     ....       1.533 sec  ( 98.0%)

SCF preparation             ....       0.114 sec  (  7.3%)
Fock matrix formation       ....       1.161 sec  ( 74.2%)
  Startup                   ....       0.030 sec  (  2.6% of F)
  Coulomb+Exchange Fock     ....       1.124 sec  ( 96.8% of F)
Diagonalization             ....       0.000 sec  (  0.0%)
Density matrix formation    ....       0.051 sec  (  3.3%)
Total Energy calculation    ....       0.027 sec  (  1.7%)
Population analysis         ....       0.079 sec  (  5.1%)
Orbital Transformation      ....       0.011 sec  (  0.7%)
Orbital Orthonormalization  ....       0.000 sec  (  0.0%)
DIIS solution               ....       0.030 sec  (  1.9%)
SOSCF solution              ....       0.060 sec  (  3.8%)
Finished LeanSCF after   1.6 sec

Maximum memory used throughout the entire LEANSCF-calculation: 166.4 MB


-------------------------------------------------------------------------------
                          DFT DISPERSION CORRECTION                            
                                                                               
                              DFTD3 V3.1  Rev 1                                
                          USING Becke-Johnson damping                          
-------------------------------------------------------------------------------
Hartree-Fock is recognized
Active option DFTDOPT                   ...         4   

molecular C6(AA) [au] = 11308.570248 


            DFT-D V3
 parameters
 using HF/MINIX parameters
 s6 scaling factor         :     1.0000 
 a1 scaling factor         :     0.4171 
 s8 scaling factor         :     0.8777 
 a2 scaling factor         :     2.9149 
 ad hoc parameters k1-k3   :    16.0000     1.3333    -4.0000 

 Edisp/kcal,au: -81.289069440297  -0.129542364106 
 E6   /kcal   : -43.580078956 
 E8   /kcal   : -37.708990484 
 % E8         :  46.388758961 

-------------------------   ----------------
Dispersion correction           -0.129542364
-------------------------   ----------------

 ** NOTE ** -> element i  will be treated as br
 ** NOTE ** -> element i  will be treated as br
NOTIFICATION: Different basis set in ORCA and otool_gcp:
ORCA: 118  gCP: 130 
If you are NOT using ECPs, check your basis set inputs!
------------------   -----------------
gCP+bas correction        -0.053269558
------------------   -----------------
----------------------------   ----------------
Total correction to HF/MINIX       -0.182811922
----------------------------   ----------------


-------------------------   --------------------
FINAL SINGLE POINT ENERGY      -495.502958156903
-------------------------   --------------------

                                *** OPTIMIZATION RUN DONE ***


------------------------------------------------------------------------------
                              ORCA PROPERTY CALCULATIONS
------------------------------------------------------------------------------

GBWName                                 ... haloligand_TightOptimization.gbw
Number of atoms                         ...     24
Number of basis functions               ...    118
Max core memory                         ...   1024 MB

Electric properties:
Dipole moment                           ... YES
Quadrupole moment                       ...  NO
Static polarizability (Dipole/Dipole)   ...  NO
Static polarizability (Dipole/Quad.)    ...  NO
Static polarizability (Quad./Quad.)     ...  NO
Static polarizability (Velocity)        ...  NO

Atomic electric properties:
Dipole moment                           ...  NO
Quadrupole moment                       ...  NO
Static polarizability                   ...  NO

Choice of electric origin               ... Center of mass
Position of electric origin             ...   173.538160   177.911056   -83.407124

General magnetic properties:
Magnetizability                         ...  NO

EPR properties:
g-Tensor (aka g-matrix)                 ...  NO
Zero-Field splitting spin-orbit         ...  NO
Zero-field splitting spin-spin          ...  NO
Hyperfine couplings                     ...  NO (   0 nuclei)
Quadrupole couplings                    ...  NO (   0 nuclei)
Contact density                         ...  NO (   0 nuclei)

NMR properties:
Chemical shifts                         ...  NO (   0 nuclei)
Spin-rotation constants                 ...  NO (   0 nuclei)
Spin-spin couplings                     ...  NO (   0 nuclei,    0 pairs)

Choice of magnetic origin               ... GIAO
Position of magnetic origin             ...     0.000000     0.000000     0.000000

Properties with geometric perturbations:
SCF Hessian                             ...  NO
IR spectrum                             ...  NO
VCD spectrum                            ...  NO
X-ray spectroscopy properties:
SCF XES/XAS/RIXS spectra                ...  NO


-------------
DIPOLE MOMENT
-------------

Method             : SCF
Type of density    : Electron Density
Multiplicity       :   1
Irrep              :   0
Energy             :  -495.3201462347969937 Eh
Relativity type    : 
Basis              : AO
                                X                 Y                 Z
Electronic contribution:     44.182888396    -293.632260816      63.348642960
Nuclear contribution   :    -44.358727398     294.169674881     -63.600666681
                        -----------------------------------------
Total Dipole Moment    :     -0.175839002       0.537414064      -0.252023721
                        -----------------------------------------
Magnitude (a.u.)       :      0.619071230
Magnitude (Debye)      :      1.573554013



--------------------
Rotational spectrum 
--------------------
 
Rotational constants in cm-1:             0.010437             0.006170             0.003984 
Rotational constants in MHz :           312.894561           184.962582           119.443774 

Dipole components along the rotational axes: 
x,y,z [a.u.] :    -0.136558    -0.599520     0.071954 
x,y,z [Debye]:    -0.347103    -1.523858     0.182893 

 

Dipole moment calculation done in   0.0 sec 

Maximum memory used throughout the entire PROP-calculation: 6.7 MB

--------------------------------
SUGGESTED CITATIONS FOR THIS RUN
--------------------------------

Below you find a list of papers that are relevant to this ORCA run
We neither can nor want to force you to cite these papers, but we appreciate if you do
You receive ORCA, which is the product of decades of hard work by many enthusiastic individuals, for free
The only thing we kindly ask in return is that you cite our papers,
We deeply appreciate it, if you show your appreciation for ORCA by not just citing the generic ORCA reference.

Please note that relegating all ORCA citations to the supporting information does *not* help us.
SI sections are not indexed - citations you put there will not count into any citation statistics
But we need these citations in order to attract the funding resources that allow us to do what we are doing

Therefore, if you are a happy ORCA user, please consider citing a few of the papers listed below in the main body of your paper

In addition to the list printed below, the program has created the file haloligand_TightOptimization.bibtex that contains the list in bibtex format
You can import this file easily into all common literature databanks and citation aid programs


List of essential papers. We consider these as the minimum necessary citations

  1. Neese,F.
     Software update: the ORCA program system, version 5.0
     WIRES Comput. Molec. Sci., 2022 12(1)e1606
     doi.org/10.1002/wcms.1606

List of papers to cite with high priority. The work reported in these papers was absolutely
necessary for this run to complete.
Our perspective: the developers of density functionals and basis sets usually get cited in chemistry papers
Good! But without the algorithms to do something with them, the functionals or basis sets would not do anything.
Hence, in our opinion, the algorithm design and method developments papers are equally worthy of getting cited

  1. Neese,F.
     The SHARK Integral Generation and Digestion System
     J. Comp. Chem., 2022  1-16
     doi.org/10.1002/jcc.26942
  2. Grimme,S.; Antony,J.; Ehrlich,S.; Krieg,H.
     A consistent and accurate ab initio parametrization of density functional dispersion correction (DFT-D) for the 94 elements H-Pu
     J. Chem. Phys., 2010 132 154104-XXXX
     doi.org/10.1063/1.3382344
  3. Grimme,S.; Ehrlich,S.; Goerigk,L.
     Effect of the damping function in dispersion corrected density functional theory
     J. Comput. Chem., 2011 32(7)1456-1465
     doi.org/10.1002/jcc.21759

List of suggested additional citations. These are papers that are important in the 'surrounding' of 
of this run, or papers that preceded the highly important papers. If you like your results we are grateful for a citation.

  1. Neese,F.
     The ORCA program system
     WIRES Comput. Molec. Sci., 2012 2(1)73-78
     doi.org/10.1002/wcms.81
  2. Neese,F.
     Software update: the ORCA program system, version 4.0
     WIRES Comput. Molec. Sci., 2018 8(1)1-6
     doi.org/10.1002/wcms.1327
  3. Neese,F.; Wennmohs,F.; Becker,U.; Riplinger,C.
     The ORCA quantum chemistry program package
     J. Chem. Phys., 2020 152 Art. No. L224108
     doi.org/10.1063/5.0004608

List of optional additional citations

  1. Neese,F.
     Approximate second-order SCF convergence for spin unrestricted wavefunctions
     Chem. Phys. Lett., 2000 325(1-3)93-98
     doi.org/10.1016/s0009-2614(00)00662-x

Timings for individual modules:

Sum of individual times          ...      226.969 sec (=   3.783 min)
Startup calculation              ...       53.477 sec (=   0.891 min)  23.6 %
SCF iterations                   ...       50.262 sec (=   0.838 min)  22.1 %
Property calculations            ...        0.073 sec (=   0.001 min)   0.0 %
SCF Gradient evaluation          ...      122.823 sec (=   2.047 min)  54.1 %
Geometry relaxation              ...        0.334 sec (=   0.006 min)   0.1 %
                             ****ORCA TERMINATED NORMALLY****
TOTAL RUN TIME: 0 days 0 hours 3 minutes 49 seconds 593 msec
