
                                 *****************
                                 * O   R   C   A *
                                 *****************

                                            #,                                       
                                            ###                                      
                                            ####                                     
                                            #####                                    
                                            ######                                   
                                           ########,                                 
                                     ,,################,,,,,                         
                               ,,#################################,,                 
                          ,,##########################################,,             
                       ,#########################################, ''#####,          
                    ,#############################################,,   '####,        
                  ,##################################################,,,,####,       
                ,###########''''           ''''###############################       
              ,#####''   ,,,,##########,,,,          '''####'''          '####       
            ,##' ,,,,###########################,,,                        '##       
           ' ,,###''''                  '''############,,,                           
         ,,##''                                '''############,,,,        ,,,,,,###''
      ,#''                                            '''#######################'''  
     '                                                          ''''####''''         
             ,#######,   #######,   ,#######,      ##                                
            ,#'     '#,  ##    ##  ,#'     '#,    #''#        ,####,   ,####,        
            ##       ##  ##   ,#'  ##            #'  '#       #'       #'  '#        
            ##       ##  #######   ##           ,######,      #####,   #    #        
            '#,     ,#'  ##    ##  '#,     ,#' ,#      #,     #,   #   #,  ,#        
             '#######'   ##     ##  '#######'  #'      '#     '####' # '####'        



                #########################################################
                #                        -***-                          #
                #          Department of theory and spectroscopy        #
                #                                                       #
                #                      Frank Neese                      #
                #                                                       #
                #     Directorship, Architecture, Infrastructure        #
                #                    SHARK, DRIVERS                     #
                #        Core code/Algorithms in most modules           #
                #                                                       #
                #        Max Planck Institute fuer Kohlenforschung      #
                #                Kaiser Wilhelm Platz 1                 #
                #                 D-45470 Muelheim/Ruhr                 #
                #                      Germany                          #
                #                                                       #
                #                  All rights reserved                  #
                #                        -***-                          #
                #########################################################


                         Program Version 6.0.0  -   RELEASE   -


 With contributions from (in alphabetic order):
   Daniel Aravena         : Magnetic Suceptibility
   Michael Atanasov       : Ab Initio Ligand Field Theory (pilot matlab implementation)
   Alexander A. Auer      : GIAO ZORA, VPT2 properties, NMR spectrum
   Ute Becker             : All parallelization in ORCA, NUMFREQ, NUMCALC
   Giovanni Bistoni       : ED, misc. LED, open-shell LED, HFLD
   Martin Brehm           : Molecular dynamics
   Dmytro Bykov           : pre 5.0 version of the SCF Hessian
   Marcos Casanova-Páez   : Triplet and SCS-CIS(D). UHF-(DLPNO)-IP/EA/STEOM-CCSD. UHF-CVS-IP/STEOM-CCSD
   Vijay G. Chilkuri      : MRCI spin determinant printing, contributions to CSF-ICE
   Pauline Colinet        : FMM embedding
   Dipayan Datta          : RHF DLPNO-CCSD density
   Achintya Kumar Dutta   : EOM-CC, STEOM-CC
   Nicolas Foglia         : Exact transition moments, OPA infrastructure, MCD improvements
   Dmitry Ganyushin       : Spin-Orbit,Spin-Spin,Magnetic field MRCI
   Miquel Garcia          : C-PCM and meta-GGA Hessian, CCSD/C-PCM, Gaussian charge scheme
   Tiago L. C. Gouveia    : GS-ROHF, GS-ROCIS
   Yang Guo               : DLPNO-NEVPT2, F12-NEVPT2, CIM, IAO-localization
   Andreas Hansen         : Spin unrestricted coupled pair/coupled cluster methods
   Ingolf Harden          : AUTO-CI MPn and infrastructure 
   Benjamin Helmich-Paris : MC-RPA, TRAH-(SCF,CASSCF), AVAS, COSX integrals, SCF dyn. polar.
   Lee Huntington         : MR-EOM, pCC
   Robert Izsak           : Overlap fitted RIJCOSX, COSX-SCS-MP3, EOM
   Riya Kayal             : Wick's Theorem for AUTO-CI, AUTO-CI UHF-CCSDT
   Emily Kempfer          : AUTO-CI, RHF CISDT and CCSDT
   Christian Kollmar      : KDIIS, OOCD, Brueckner-CCSD(T), CCSD density, CASPT2, CASPT2-K, improved NEVPT2
   Axel Koslowski         : Symmetry handling
   Simone Kossmann        : Meta GGA functionals, TD-DFT gradient, OOMP2, (MP2 Hessian; deprecated post 5.0)
   Lucas Lang             : DCDCAS
   Marvin Lechner         : AUTO-CI (C++ implementation), FIC-MRCC
   Spencer Leger          : CASSCF response
   Dagmar Lenk            : GEPOL surface, SMD, ORCA-2-JSON
   Dimitrios Liakos       : Extrapolation schemes; Compound Job, initial MDCI parallelization
   Dimitrios Manganas     : Further ROCIS development; embedding schemes. LFT, Crystal Embedding
   Dimitrios Pantazis     : SARC Basis sets
   Anastasios Papadopoulos: AUTO-CI, single reference methods and gradients
   Taras Petrenko         : pre 6.0 DFT Hessian and TD-DFT gradient, (ASA, deprecated), ECA, 1-Electron XAS/XES, NRVS
   Peter Pinski           : DLPNO-MP2, DLPNO-MP2 Gradient
   Christoph Reimann      : Effective Core Potentials
   Marius Retegan         : Local ZFS, SOC
   Christoph Riplinger    : Optimizer, TS searches, QM/MM, DLPNO-CCSD(T), (RO)-DLPNO pert. Triples
   Michael Roemelt        : Original ROCIS implementation
   Masaaki Saitow         : Open-shell DLPNO-CCSD energy and density
   Barbara Sandhoefer     : DKH picture change effects
   Kantharuban Sivalingam : CASSCF convergence/infrastructure, NEVPT2 and variants, FIC-MRCI
   Bernardo de Souza      : ESD, SOC TD-DFT
   Georgi Stoychev        : AutoAux, RI-MP2 NMR, DLPNO-MP2 response, X2C
   Van Anh Tran           : RI-MP2 g-tensors
   Willem Van den Heuvel  : Paramagnetic NMR
   Zikuan Wang            : NOTCH, Electric field optimization 
   Frank Wennmohs         : Technical directorship and infrastructure
   Hang Xu                : AUTO-CI-Response properties 


 We gratefully acknowledge several colleagues who have allowed us to
 interface, adapt or use parts of their codes:
   Stefan Grimme, W. Hujo, H. Kruse, P. Pracht,  : VdW corrections, initial TS optimization,
                  C. Bannwarth, S. Ehlert,         DFT functionals, gCP, sTDA/sTD-DF
                  L. Wittmann, M. Mueller
   Ed Valeev, F. Pavosevic, A. Kumar             : LibInt (2-el integral package), F12 methods
   Garnet Chan, S. Sharma, J. Yang, R. Olivares  : DMRG
   Ulf Ekstrom                                   : XCFun DFT Library
   Mihaly Kallay                                 : mrcc  (arbitrary order and MRCC methods)
   Frank Weinhold                                : gennbo (NPA and NBO analysis)
   Simon Mueller                                 : openCOSMO-RS
   Christopher J. Cramer and Donald G. Truhlar   : smd solvation model
   Lars Goerigk                                  : TD-DFT with DH, B97 family of functionals
   V. Asgeirsson, H. Jonsson                     : NEB implementation
   FAccTs GmbH                                   : IRC, NEB, NEB-TS, DLPNO-Multilevel, CI-OPT
                                                   MM, QMMM, 2- and 3-layer-ONIOM, Crystal-QMMM,
                                                   LR-CPCM, SF, NACMEs, symmetry and pop. for TD-DFT,
                                                   nearIR, NL-DFT gradient (VV10), updates on ESD,
                                                   ML-optimized integration grids, MBIS, APM,
                                                   GOAT, DOCKER, SOLVATOR, interface openCOSMO-RS
   S Lehtola, MJT Oliveira, MAL Marques          : LibXC Library
   Liviu Ungur et al                             : ANISO software


 Your calculation uses the libint2 library for the computation of 2-el integrals
 For citations please refer to: http://libint.valeyev.net

 Your ORCA version has been built with support for libXC version: 6.2.2
 For citations please refer to: https://libxc.gitlab.io

 This ORCA versions uses:
   CBLAS   interface :  Fast vector & matrix operations
   LAPACKE interface :  Fast linear algebra routines
   Shared memory     :  Shared parallel matrices


NOTE: MaxCore=8000 MB was set to SCF,MP2,MDCI,CIPSI,MRCI and CIS
      => If you want to overwrite this, your respective input block should be placed after the MaxCore statement
Warning: RI is on but no J-basis has been assigned. Assigning Def2/J (nothing to worry about!)
================================================================================

cite the ECPs for I  [Def2-ECP] as follows:
Ce-Yb(ecp-28): M. Dolg, H. Stoll, H.Preuss, J. Chem. Phys., 1989, 90, 1730-1734.
Y-Cd(ecp-28), Hf-Hg(ecp-46): D. Andrae,U. Haeussermann, M. Dolg, H. Stoll, H. Preuss, Theor. Chim. Acta, 1990, 77, 123-141.
In-Sb(ecp-28), Tl-Bi(ecp-46): B. Metz, H. Stoll, M. Dolg, J. Chem. Phys., 2000, 113, 2563-2569.
Te-Xe(ecp-28), Po-Rn(ecp-46): K. A. Peterson, D. Figgen, E. Goll, H. Stoll, M. Dolg, J. Chem. Phys., 2003, 119, 11113-11123.
Rb(ecp-28), Cs(ecp-46): T. Leininger, A. Nicklass, W. Kuechle, H. Stoll, M. Dolg, A. Bergner, Chem. Phys. Lett., 1996, 255, 274-280.
Sr(ecp-28), Ba(ecp-46): M. Kaupp, P. V. Schleyer, H. Stoll and H. Preuss, J. Chem. Phys., 1991, 94, 1360-1366.
La(ecp-46): M. Dolg, H. Stoll, A. Savin, H. Preuss, Theor. Chim. Acta, 1989, 75, 173-194.
Lu(ecp-28): X. Cao, M. Dolg, J. Chem. Phys., 2001, 115, 7348-7355.

ECP parameters for I  [Def2-ECP] have been obtained from:
TURBOMOLE (7.0.2)

----- Orbital basis set information -----
Your calculation utilizes the basis: def2-SVP
   F. Weigend and R. Ahlrichs, Phys. Chem. Chem. Phys. 7, 3297 (2005).

----- AuxJ basis set information -----
Your calculation utilizes the auxiliary basis: def2/J
   F. Weigend, Phys. Chem. Chem. Phys. 8, 1057 (2006).

----- AuxC basis set information -----
Your calculation utilizes the auxiliary basis: def2-SVP/C
  H-La, Hf-Rn : A. Hellweg, C. Hattig, S. Hofener and W. Klopper, Theor. Chem. Acc. 117, 587 (2007).
        Ce-Lu : J. Chmela and M. E. Harding, Mol. Phys. (2018).

================================================================================
                                        WARNINGS
                       Please study these warnings very carefully!
================================================================================

WARNING: Old DensityContainer found on disk!
         Will remove this file - 
         If you want to keep old densities, please start your calculation with a different basename. 


WARNING: Post HF methods need fully converged wavefunctions
  ===> : Setting SCFConvForced true
         You can overwrite this default with %scf ConvForced false 


WARNING: MDCI localization with Augmented Hessian Foster-Boys
  ===> : Switching off randomization!

================================================================================
                                       INPUT FILE
================================================================================
NAME = smallComplexOptimized_Fragmented.inp
|  1> ! DLPNO-CCSD(T) def2-sVP def2-SVP/C TightSCF RIJCOSX LED
|  2> 
|  3> %maxcore 8000
|  4> 
|  5> *xyz 0 1
|  6> H(2) 94.03847900363128 95.56968873089886 -47.45454979409845
|  7> H(2) 93.27480714279287 96.47396852739881 -50.26555167908275
|  8> H(2) 91.3820536990671 94.79394468963362 -49.90630467715645
|  9> H(2) 92.97944576730984 94.07119266069336 -50.07263368634954
| 10> H(2) 92.2457582586205 94.22023321699045 -48.48185090016032
| 11> H(2) 94.94599254061113 97.73909302232931 -49.180002723945
| 12> H(2) 92.54087957181535 97.77527788193504 -48.37292694760338
| 13> H(1) 90.81091290640504 97.084690986993 -46.5780346591331
| 14> H(1) 92.28655872467832 92.25346024200871 -43.61731856246633
| 15> H(1) 90.89291879073602 94.75276147613863 -46.83440660404441
| 16> H(1) 93.3329175660635 97.5448581371073 -45.24922823026197
| 17> H(1) 92.814287626496 98.80715230214386 -46.37389006921541
| 18> H(1) 93.24162195583997 99.22264427328545 -44.71045817447565
| 19> H(1) 89.6081854825604 99.32058650021226 -44.50021953198504
| 20> H(1) 91.08509928948806 100.28113283726921 -44.43136587612807
| 21> H(1) 89.64417014945856 97.1895015139239 -45.26872693162088
| 22> H(1) 90.4174157239609 99.80531765438535 -45.99779093389682
| 23> H(1) 91.74837611422923 96.45384841803603 -41.87095357364787
| 24> N(2) 94.8795681338068 97.31169285466524 -48.23695338999568
| 25> C(2) 94.28332716262726 95.9912547397665 -48.43095151040644
| 26> C(2) 95.25573762322547 95.02248212655729 -49.10008340242457
| 27> O(2) 95.77398138063315 95.29841968805736 -50.17963033920137
| 28> C(2) 92.99501211139518 96.08159529546519 -49.27954132879258
| 29> O(2) 92.05928217028189 96.9694888053435 -48.64699717158231
| 30> C(2) 92.36019262079112 94.7028877508946 -49.44413329214354
| 31> C(1) 91.1747663532547 95.75021850910848 -44.95655271175993
| 32> C(1) 91.56140310608849 95.5822703616219 -43.62162504004875
| 33> C(1) 91.96164715972675 94.33445604375484 -43.15024826900864
| 34> C(1) 90.7088575487796 97.09721203956359 -45.48911331004795
| 35> N(1) 91.38312294943528 98.25228346466449 -44.86620574535659
| 36> C(1) 91.97814364712971 93.21684173773455 -43.99735620637756
| 37> C(1) 91.19537179685118 94.62363366088144 -45.80561823787297
| 38> C(1) 92.76595771634025 98.46995445416428 -45.33647199889184
| 39> C(1) 91.5928323160744 93.36581781197711 -45.33106319833271
| 40> I(1) 92.50129642550272 94.15972551677119 -41.12166431770961
| 41> O(1) 91.57081910688392 96.67696681531916 -42.80166751139753
| 42> I(1) 91.59665572318659 91.73505725039921 -46.64146434097875
| 43> C(1) 90.57843163421632 99.48016300190164 -44.96641012239646
| 44> **                         ****END OF INPUT****
================================================================================

                       ****************************
                       * Single Point Calculation *
                       ****************************

---------------------------------
CARTESIAN COORDINATES (ANGSTROEM)
---------------------------------
  H     94.038479   95.569689  -47.454550
  H     93.274807   96.473969  -50.265552
  H     91.382054   94.793945  -49.906305
  H     92.979446   94.071193  -50.072634
  H     92.245758   94.220233  -48.481851
  H     94.945993   97.739093  -49.180003
  H     92.540880   97.775278  -48.372927
  H     90.810913   97.084691  -46.578035
  H     92.286559   92.253460  -43.617319
  H     90.892919   94.752761  -46.834407
  H     93.332918   97.544858  -45.249228
  H     92.814288   98.807152  -46.373890
  H     93.241622   99.222644  -44.710458
  H     89.608185   99.320587  -44.500220
  H     91.085099  100.281133  -44.431366
  H     89.644170   97.189502  -45.268727
  H     90.417416   99.805318  -45.997791
  H     91.748376   96.453848  -41.870954
  N     94.879568   97.311693  -48.236953
  C     94.283327   95.991255  -48.430952
  C     95.255738   95.022482  -49.100083
  O     95.773981   95.298420  -50.179630
  C     92.995012   96.081595  -49.279541
  O     92.059282   96.969489  -48.646997
  C     92.360193   94.702888  -49.444133
  C     91.174766   95.750219  -44.956553
  C     91.561403   95.582270  -43.621625
  C     91.961647   94.334456  -43.150248
  C     90.708858   97.097212  -45.489113
  N     91.383123   98.252283  -44.866206
  C     91.978144   93.216842  -43.997356
  C     91.195372   94.623634  -45.805618
  C     92.765958   98.469954  -45.336472
  C     91.592832   93.365818  -45.331063
  I     92.501296   94.159726  -41.121664
  O     91.570819   96.676967  -42.801668
  I     91.596656   91.735057  -46.641464
  C     90.578432   99.480163  -44.966410

----------------------------
CARTESIAN COORDINATES (A.U.)
----------------------------
  NO LB      ZA    FRAG     MASS         X           Y           Z
   0 H     1.0000    2     1.008  177.706971  180.600538  -89.676103
   1 H     1.0000    2     1.008  176.263841  182.309380  -94.988127
   2 H     1.0000    2     1.008  172.687055  179.134595  -94.309248
   3 H     1.0000    2     1.008  175.705689  177.768791  -94.623564
   4 H     1.0000    2     1.008  174.319220  178.050437  -91.617421
   5 H     1.0000    2     1.008  179.421923  184.700118  -92.936736
   6 H     1.0000    2     1.008  174.876919  184.768498  -91.411584
   7 H     1.0000    1     1.008  171.607755  183.463478  -88.019729
   8 H     1.0000    1     1.008  174.396322  174.333775  -82.424787
   9 H     1.0000    1     1.008  171.762724  179.056770  -88.504202
  10 H     1.0000    1     1.008  176.373653  184.333068  -85.508649
  11 H     1.0000    1     1.008  175.393585  186.718458  -87.633952
  12 H     1.0000    1     1.008  176.201130  187.503624  -84.490521
  13 H     1.0000    1     1.008  169.334930  187.688708  -84.093228
  14 H     1.0000    1     1.008  172.125893  189.503877  -83.963113
  15 H     1.0000    1     1.008  169.402931  183.661541  -85.545496
  16 H     1.0000    1     1.008  170.864153  188.604717  -86.923228
  17 H     1.0000    1     1.008  173.379304  182.271358  -79.124635
  18 N     7.0000    2    14.007  179.296399  183.892449  -91.154631
  19 C     6.0000    2    12.011  178.169667  181.397183  -91.521235
  20 C     6.0000    2    12.011  180.007257  179.566468  -92.785711
  21 O     8.0000    2    15.999  180.986596  180.087914  -94.825759
  22 C     6.0000    2    12.011  175.735105  181.567902  -93.124837
  23 O     8.0000    2    15.999  173.966831  183.245777  -91.929502
  24 C     6.0000    2    12.011  174.535470  178.962522  -93.435871
  25 C     6.0000    1    12.011  172.295339  180.941690  -84.955573
  26 C     6.0000    1    12.011  173.025976  180.624314  -82.432925
  27 C     6.0000    1    12.011  173.782328  178.266287  -81.542152
  28 C     6.0000    1    12.011  171.414899  183.487139  -85.961966
  29 N     7.0000    1    14.007  172.689076  185.669908  -84.784842
  30 C     6.0000    1    12.011  173.813502  176.154302  -83.142954
  31 C     6.0000    1    12.011  172.334277  178.812753  -86.560074
  32 C     6.0000    1    12.011  175.302255  186.081246  -85.673516
  33 C     6.0000    1    12.011  173.085369  176.435826  -85.663295
  34 I    25.0000*   1   126.900  174.802117  177.936094  -77.708684
  35 O     8.0000    1    15.999  173.043770  182.692991  -80.883430
  36 I    25.0000*   1   126.900  173.092594  173.354135  -88.139594
  37 C     6.0000    1    12.011  171.168429  187.990264  -84.974200
* core charge reduced due to ECP

----------------------------------------------
CARTESIAN COORDINATES OF FRAGMENTS (ANGSTROEM)
----------------------------------------------

 FRAGMENT 1 
  H    90.810913   97.084691  -46.578035
  H    92.286559   92.253460  -43.617319
  H    90.892919   94.752761  -46.834407
  H    93.332918   97.544858  -45.249228
  H    92.814288   98.807152  -46.373890
  H    93.241622   99.222644  -44.710458
  H    89.608185   99.320587  -44.500220
  H    91.085099  100.281133  -44.431366
  H    89.644170   97.189502  -45.268727
  H    90.417416   99.805318  -45.997791
  H    91.748376   96.453848  -41.870954
  C    91.174766   95.750219  -44.956553
  C    91.561403   95.582270  -43.621625
  C    91.961647   94.334456  -43.150248
  C    90.708858   97.097212  -45.489113
  N    91.383123   98.252283  -44.866206
  C    91.978144   93.216842  -43.997356
  C    91.195372   94.623634  -45.805618
  C    92.765958   98.469954  -45.336472
  C    91.592832   93.365818  -45.331063
  I    92.501296   94.159726  -41.121664
  O    91.570819   96.676967  -42.801668
  I    91.596656   91.735057  -46.641464
  C    90.578432   99.480163  -44.966410

 FRAGMENT 2 
  H    94.038479   95.569689  -47.454550
  H    93.274807   96.473969  -50.265552
  H    91.382054   94.793945  -49.906305
  H    92.979446   94.071193  -50.072634
  H    92.245758   94.220233  -48.481851
  H    94.945993   97.739093  -49.180003
  H    92.540880   97.775278  -48.372927
  N    94.879568   97.311693  -48.236953
  C    94.283327   95.991255  -48.430952
  C    95.255738   95.022482  -49.100083
  O    95.773981   95.298420  -50.179630
  C    92.995012   96.081595  -49.279541
  O    92.059282   96.969489  -48.646997
  C    92.360193   94.702888  -49.444133

--------------------------------
INTERNAL COORDINATES (ANGSTROEM)
--------------------------------
 H      0   0   0     0.000000000000     0.00000000     0.00000000
 H      1   0   0     3.050024304621     0.00000000     0.00000000
 H      2   1   0     2.556179591224    82.01066764     0.00000000
 H      3   2   1     1.761163608050    65.47069589   290.76659547
 H      4   3   2     1.758152530546    60.08324857   102.70258357
 H      2   1   3     2.360469689607    63.75498734   169.49706651
 H      2   1   3     2.411241192799    60.84411324    95.75522194
 H      7   2   1     2.586761150572   127.16531213   291.66156648
 H      5   4   3     5.247240748967   143.49383622   156.87384258
 H      5   4   3     2.197233187776   162.91813737   351.77765025
 H      8   7   2     2.887557416709    72.10057312   118.94795614
 H     11   8   7     1.768396964852    64.21075064    48.34911398
 H     11   8   7     1.764532340369   104.29104962    94.25928258
 H      8   7   2     3.280716035366   120.17820467   192.39481262
 H     14   8   7     1.763140517557    95.10223517   327.13843338
 H      8   7   2     1.756861016918   160.96622235   197.24083164
 H     15  14   8     1.768018352151    60.16169173    49.43669046
 H     11   8   7     3.887648836406    89.95307098   183.08976478
 N      6   2   1     1.037509109069    98.73704715   351.45226404
 C      1   2   3     1.091342674143    28.00371978   155.47724700
 C     20   1   2     1.527036335161   106.84868989   243.63032110
 O     21  20   1     1.228877422139   120.73301972   185.26402464
 C      2   1   3     1.097478210997    29.51917252    28.43340144
 O      7   2   1     0.977929742257    59.01805686   278.71825025
 C      5   4   3     1.082607049794    35.84953551   323.37586939
 C     16   8   7     2.124079341873    65.83000737   230.80738894
 C     26  16   8     1.399902299300   114.86364027   146.74874178
 C     27  26  16     1.392634889202   120.63988675   146.33233558
 C     16   8   7     1.091167613681    36.52887104   273.09711918
 N     29  16   8     1.475411014516   107.12304960   121.17155628
 C      9   5   4     1.080579648687    48.51423109   156.57405387
 C     10   5   4     1.080072829003   120.84979758   194.00667274
 C     13  11   8     1.088435455554    35.85140636   348.66554195
 C     31   9   5     1.396220982841   120.65342034    23.72983194
 I     28  27  26     2.106396196014   118.28980291   180.87753891
 O     18  11   8     0.973414990631    34.83145549   350.57606227
 I     34  31   9     2.092019546345   120.97455211     0.02661768
 C     14   8   7     1.088198475133    60.11542181   335.53607229

---------------------------
INTERNAL COORDINATES (A.U.)
---------------------------
 H      0   0   0     0.000000000000     0.00000000     0.00000000
 H      1   0   0     5.763710637538     0.00000000     0.00000000
 H      2   1   0     4.830479376531    82.01066764     0.00000000
 H      3   2   1     3.328116896244    65.47069589   290.76659547
 H      4   3   2     3.322426784392    60.08324857   102.70258357
 H      2   1   3     4.460641260780    63.75498734   169.49706651
 H      2   1   3     4.556585497220    60.84411324    95.75522194
 H      7   2   1     4.888270148447   127.16531213   291.66156648
 H      5   4   3     9.915847974299   143.49383622   156.87384258
 H      5   4   3     4.152168977259   162.91813737   351.77765025
 H      8   7   2     5.456692713554    72.10057312   118.94795614
 H     11   8   7     3.341785959629    64.21075064    48.34911398
 H     11   8   7     3.334482877745   104.29104962    94.25928258
 H      8   7   2     6.199654830006   120.17820467   192.39481262
 H     14   8   7     3.331852713803    95.10223517   327.13843338
 H      8   7   2     3.319986177337   160.96622235   197.24083164
 H     15  14   8     3.341070485313    60.16169173    49.43669046
 H     11   8   7     7.346591605665    89.95307098   183.08976478
 N      6   2   1     1.960608077589    98.73704715   351.45226404
 C      1   2   3     2.062338772391    28.00371978   155.47724700
 C     20   1   2     2.885680470000   106.84868989   243.63032110
 O     21  20   1     2.322241780002   120.73301972   185.26402464
 C      2   1   3     2.073933256729    29.51917252    28.43340144
 O      7   2   1     1.848019391081    59.01805686   278.71825025
 C      5   4   3     2.045830834764    35.84953551   323.37586939
 C     16   8   7     4.013928242860    65.83000737   230.80738894
 C     26  16   8     2.645431959924   114.86364027   146.74874178
 C     27  26  16     2.631698545136   120.63988675   146.33233558
 C     16   8   7     2.062007956062    36.52887104   273.09711918
 N     29  16   8     2.788122752407   107.12304960   121.17155628
 C      9   5   4     2.041999601907    48.51423109   156.57405387
 C     10   5   4     2.041041851506   120.84979758   194.00667274
 C     13  11   8     2.056844925447    35.85140636   348.66554195
 C     31   9   5     2.638475280004   120.65342034    23.72983194
 I     28  27  26     3.980511939999   118.28980291   180.87753891
 O     18  11   8     1.839487746946    34.83145549   350.57606227
 I     34  31   9     3.953344009401   120.97455211     0.02661768
 C     14   8   7     2.056397097353    60.11542181   335.53607229

---------------------
BASIS SET INFORMATION
---------------------
There are 5 groups of distinct atoms

 Group   1 Type H   : 4s1p contracted to 2s1p pattern {31/1}
 Group   2 Type N   : 7s4p1d contracted to 3s2p1d pattern {511/31/1}
 Group   3 Type C   : 7s4p1d contracted to 3s2p1d pattern {511/31/1}
 Group   4 Type O   : 7s4p1d contracted to 3s2p1d pattern {511/31/1}
 Group   5 Type I   : 10s7p6d contracted to 4s4p2d pattern {6211/4111/51}

Atom   0H    basis set group =>   1
Atom   1H    basis set group =>   1
Atom   2H    basis set group =>   1
Atom   3H    basis set group =>   1
Atom   4H    basis set group =>   1
Atom   5H    basis set group =>   1
Atom   6H    basis set group =>   1
Atom   7H    basis set group =>   1
Atom   8H    basis set group =>   1
Atom   9H    basis set group =>   1
Atom  10H    basis set group =>   1
Atom  11H    basis set group =>   1
Atom  12H    basis set group =>   1
Atom  13H    basis set group =>   1
Atom  14H    basis set group =>   1
Atom  15H    basis set group =>   1
Atom  16H    basis set group =>   1
Atom  17H    basis set group =>   1
Atom  18N    basis set group =>   2
Atom  19C    basis set group =>   3
Atom  20C    basis set group =>   3
Atom  21O    basis set group =>   4
Atom  22C    basis set group =>   3
Atom  23O    basis set group =>   4
Atom  24C    basis set group =>   3
Atom  25C    basis set group =>   3
Atom  26C    basis set group =>   3
Atom  27C    basis set group =>   3
Atom  28C    basis set group =>   3
Atom  29N    basis set group =>   2
Atom  30C    basis set group =>   3
Atom  31C    basis set group =>   3
Atom  32C    basis set group =>   3
Atom  33C    basis set group =>   3
Atom  34I    basis set group =>   5
Atom  35O    basis set group =>   4
Atom  36I    basis set group =>   5
Atom  37C    basis set group =>   3
---------------------------------
AUXILIARY/J BASIS SET INFORMATION
---------------------------------
There are 5 groups of distinct atoms

 Group   1 Type H   : 5s2p1d contracted to 3s1p1d pattern {311/2/1}
 Group   2 Type N   : 12s5p4d2f1g contracted to 6s4p3d1f1g pattern {711111/2111/211/2/1}
 Group   3 Type C   : 12s5p4d2f1g contracted to 6s4p3d1f1g pattern {711111/2111/211/2/1}
 Group   4 Type O   : 12s5p4d2f1g contracted to 6s4p3d1f1g pattern {711111/2111/211/2/1}
 Group   5 Type I   : 11s5p5d3f1g contracted to 8s4p3d2f1g pattern {41111111/2111/311/21/1}

Atom   0H    basis set group =>   1
Atom   1H    basis set group =>   1
Atom   2H    basis set group =>   1
Atom   3H    basis set group =>   1
Atom   4H    basis set group =>   1
Atom   5H    basis set group =>   1
Atom   6H    basis set group =>   1
Atom   7H    basis set group =>   1
Atom   8H    basis set group =>   1
Atom   9H    basis set group =>   1
Atom  10H    basis set group =>   1
Atom  11H    basis set group =>   1
Atom  12H    basis set group =>   1
Atom  13H    basis set group =>   1
Atom  14H    basis set group =>   1
Atom  15H    basis set group =>   1
Atom  16H    basis set group =>   1
Atom  17H    basis set group =>   1
Atom  18N    basis set group =>   2
Atom  19C    basis set group =>   3
Atom  20C    basis set group =>   3
Atom  21O    basis set group =>   4
Atom  22C    basis set group =>   3
Atom  23O    basis set group =>   4
Atom  24C    basis set group =>   3
Atom  25C    basis set group =>   3
Atom  26C    basis set group =>   3
Atom  27C    basis set group =>   3
Atom  28C    basis set group =>   3
Atom  29N    basis set group =>   2
Atom  30C    basis set group =>   3
Atom  31C    basis set group =>   3
Atom  32C    basis set group =>   3
Atom  33C    basis set group =>   3
Atom  34I    basis set group =>   5
Atom  35O    basis set group =>   4
Atom  36I    basis set group =>   5
Atom  37C    basis set group =>   3
---------------------------------
AUXILIARY/C BASIS SET INFORMATION
---------------------------------
There are 5 groups of distinct atoms

 Group   1 Type H   : 4s3p2d contracted to 3s2p1d pattern {211/21/2}
 Group   2 Type N   : 8s6p5d3f contracted to 6s5p4d1f pattern {311111/21111/2111/3}
 Group   3 Type C   : 8s6p5d3f contracted to 6s5p4d1f pattern {311111/21111/2111/3}
 Group   4 Type O   : 8s6p5d3f contracted to 6s5p4d1f pattern {311111/21111/2111/3}
 Group   5 Type I   : 9s8p7d4f2g contracted to 9s8p7d4f2g pattern {111111111/11111111/1111111/1111/11}

Atom   0H    basis set group =>   1
Atom   1H    basis set group =>   1
Atom   2H    basis set group =>   1
Atom   3H    basis set group =>   1
Atom   4H    basis set group =>   1
Atom   5H    basis set group =>   1
Atom   6H    basis set group =>   1
Atom   7H    basis set group =>   1
Atom   8H    basis set group =>   1
Atom   9H    basis set group =>   1
Atom  10H    basis set group =>   1
Atom  11H    basis set group =>   1
Atom  12H    basis set group =>   1
Atom  13H    basis set group =>   1
Atom  14H    basis set group =>   1
Atom  15H    basis set group =>   1
Atom  16H    basis set group =>   1
Atom  17H    basis set group =>   1
Atom  18N    basis set group =>   2
Atom  19C    basis set group =>   3
Atom  20C    basis set group =>   3
Atom  21O    basis set group =>   4
Atom  22C    basis set group =>   3
Atom  23O    basis set group =>   4
Atom  24C    basis set group =>   3
Atom  25C    basis set group =>   3
Atom  26C    basis set group =>   3
Atom  27C    basis set group =>   3
Atom  28C    basis set group =>   3
Atom  29N    basis set group =>   2
Atom  30C    basis set group =>   3
Atom  31C    basis set group =>   3
Atom  32C    basis set group =>   3
Atom  33C    basis set group =>   3
Atom  34I    basis set group =>   5
Atom  35O    basis set group =>   4
Atom  36I    basis set group =>   5
Atom  37C    basis set group =>   3
-------------------------
ECP PARAMETER INFORMATION
-------------------------

 Group 1, Type I  ECP Def2-ECP (replacing 28 core electrons, lmax=3)

Atom  34I    ECP group =>   1
Atom  36I    ECP group =>   1


Checking for AutoStart:
The File: smallComplexOptimized_Fragmented.gbw exists
Trying to determine its content:
     ... Fine, the file contains calculation information
     ... Fine, the calculation information was read
     ... Fine, the file contains a basis set
     ... Fine, the basis set was read
     ... Fine, the file contains ECP parameters
     ... Fine, ECP parameters were read
     ... Fine, the file contains a geometry
     ... Fine, the geometry was read
     ... Fine, the file contains a set of orbitals
     ... Fine, the orbitals can be read
     => possible old guess file was deleted
     => GBW file was renamed to GES file
     => GES file is set as startup file
     => Guess is set to MORead
     ... now leaving AutoStart

------------------------------------------------------------------------------
                             ORCA STARTUP CALCULATIONS
                           -- RI-GTO INTEGRALS CHOSEN --
------------------------------------------------------------------------------
------------------------------------------------------------------------------
                   ___                                                        
                  /   \      - P O W E R E D   B Y -                         
                 /     \                                                     
                 |  |  |   _    _      __       _____    __    __             
                 |  |  |  | |  | |    /  \     |  _  \  |  |  /  |          
                  \  \/   | |  | |   /    \    | | | |  |  | /  /          
                 / \  \   | |__| |  /  /\  \   | |_| |  |  |/  /          
                |  |  |   |  __  | /  /__\  \  |    /   |      \           
                |  |  |   | |  | | |   __   |  |    \   |  |\   \          
                \     /   | |  | | |  |  |  |  | |\  \  |  | \   \       
                 \___/    |_|  |_| |__|  |__|  |_| \__\ |__|  \__/        
                                                                              
                      - O R C A' S   B I G   F R I E N D -                    
                                      &                                       
                       - I N T E G R A L  F E E D E R -                       
                                                                              
 v1 FN, 2020, v2 2021, v3 2022-2024                                           
------------------------------------------------------------------------------


----------------------
SHARK INTEGRAL PACKAGE
----------------------

Number of atoms                             ...     38
Number of basis functions                   ...    394
Number of shells                            ...    182
Maximum angular momentum                    ...      2
Integral batch strategy                     ... SHARK/LIBINT Hybrid
RI-J (if used) integral strategy            ... SPLIT-RIJ (Revised 2003 algorithm where possible)
Printlevel                                  ...      1
Contraction scheme used                     ... SEGMENTED contraction
Prescreening option                         ... SCHWARTZ
   Thresh                                   ... 2.500e-11
   Tcut                                     ... 2.500e-12
   Tpresel                                  ... 2.500e-12 
Coulomb Range Separation                    ... NOT USED
Exchange Range Separation                   ... NOT USED
Multipole approximations                    ... NOT USED
Finite Nucleus Model                        ... NOT USED
CABS basis                                  ... NOT available
Auxiliary Coulomb fitting basis             ... AVAILABLE
   # of basis functions in Aux-J            ...   1196
   # of shells in Aux-J                     ...    396
   Maximum angular momentum in Aux-J        ...      4
Auxiliary J/K fitting basis                 ... NOT available
Auxiliary Correlation fitting basis         ... AVAILABLE
   # of basis functions in Aux-C            ...   1344
   # of shells in Aux-C                     ...    456
   Maximum angular momentum in Aux-C        ...      4
Auxiliary 'external' fitting basis          ... NOT available

Checking pre-screening integrals            ... done (  0.0 sec) Dimension = 182
Check shell pair data                       ... done (  0.0 sec)
Shell pair information
Shell pair cut-off parameter TPreSel        ...   2.5e-12
Total number of shell pairs                 ...     16653
Shell pairs after pre-screening             ...     12506
Total number of primitive shell pairs       ...     62480
Primitive shell pairs kept                  ...     29397
          la=0 lb=0:   3828 shell pairs
          la=1 lb=0:   4680 shell pairs
          la=1 lb=1:   1471 shell pairs
          la=2 lb=0:   1484 shell pairs
          la=2 lb=1:    898 shell pairs
          la=2 lb=2:    145 shell pairs

Calculating one electron integrals          ... done (  0.1 sec)
Calculating ECP integrals                   ... done (  0.3 sec)
Calculating RI/J V-Matrix + Cholesky decomp.... done (  0.1 sec)
Calculating RI/C V-Matrix + Cholesky decomp.... done (  0.1 sec)
Calculating Nuclear repulsion               ... done (  0.0 sec) ENN=   2065.712640113326 Eh

Diagonalization of the overlap matrix:
Smallest eigenvalue                        ... 2.069e-04
Time for diagonalization                   ...    0.024 sec
Threshold for overlap eigenvalues          ... 1.000e-07
Number of eigenvalues below threshold      ... 0
Time for construction of square roots      ...    0.012 sec
Total time needed                          ...    0.038 sec

-------------------
DFT GRID GENERATION
-------------------

General Integration Accuracy     IntAcc      ... 4.388
Radial Grid Type                 RadialGrid  ... OptM3 with GC (2021)
Angular Grid (max. ang.)         AngularGrid ... 4 (Lebedev-302)
Angular grid pruning method      GridPruning ... 4 (adaptive)
Weight generation scheme         WeightScheme... mBecke (2022)
Basis function cutoff            BFCut       ... 1.0000e-11
Integration weight cutoff        WCut        ... 1.0000e-14
Partially contracted basis set               ... off
Rotationally invariant grid construction     ... off
Angular grids for H and He will be reduced by one unit

Total number of grid points                  ...   186998
Total number of batches                      ...     2940
Average number of points per batch           ...       63
Average number of grid points per atom       ...     4921

--------------------
COSX GRID GENERATION
--------------------

GRIDX 1
-------
General Integration Accuracy     IntAcc      ... 3.816
Radial Grid Type                 RadialGrid  ... OptM3 with GC (2021)
Angular Grid (max. ang.)         AngularGrid ... 1 (Lebedev-50)
Angular grid pruning method      GridPruning ... 4 (adaptive)
Weight generation scheme         WeightScheme... mBecke (2022)
Basis function cutoff            BFCut       ... 1.0000e-11
Integration weight cutoff        WCut        ... 1.0000e-14
Partially contracted basis set               ... on
Rotationally invariant grid construction     ... off
Angular grids for H and He will be reduced by one unit

Total number of grid points                  ...    32208
Total number of batches                      ...      273
Average number of points per batch           ...      117
Average number of grid points per atom       ...      848
UseSFitting                                  ... on

GRIDX 2
-------
General Integration Accuracy     IntAcc      ... 4.020
Radial Grid Type                 RadialGrid  ... OptM3 with GC (2021)
Angular Grid (max. ang.)         AngularGrid ... 2 (Lebedev-110)
Angular grid pruning method      GridPruning ... 4 (adaptive)
Weight generation scheme         WeightScheme... mBecke (2022)
Basis function cutoff            BFCut       ... 1.0000e-11
Integration weight cutoff        WCut        ... 1.0000e-14
Partially contracted basis set               ... on
Rotationally invariant grid construction     ... off
Angular grids for H and He will be reduced by one unit

Total number of grid points                  ...    56078
Total number of batches                      ...      458
Average number of points per batch           ...      122
Average number of grid points per atom       ...     1476
UseSFitting                                  ... on

GRIDX 3
-------
General Integration Accuracy     IntAcc      ... 4.338
Radial Grid Type                 RadialGrid  ... OptM3 with GC (2021)
Angular Grid (max. ang.)         AngularGrid ... 3 (Lebedev-194)
Angular grid pruning method      GridPruning ... 4 (adaptive)
Weight generation scheme         WeightScheme... mBecke (2022)
Basis function cutoff            BFCut       ... 1.0000e-11
Integration weight cutoff        WCut        ... 1.0000e-14
Partially contracted basis set               ... on
Rotationally invariant grid construction     ... off
Angular grids for H and He will be reduced by one unit

Total number of grid points                  ...   108913
Total number of batches                      ...      871
Average number of points per batch           ...      125
Average number of grid points per atom       ...     2866
UseSFitting                                  ... on
Initializing property integral containers    ... done (  0.0 sec)

SHARK setup successfully completed in   7.6 seconds

Maximum memory used throughout the entire STARTUP-calculation: 86.0 MB
-------------------------------------------------------------------------------
                                 ORCA GUESS
                   Start orbitals & Density for SCF / CASSCF
-------------------------------------------------------------------------------

------------
SCF SETTINGS
------------
Hamiltonian:
 Ab initio Hamiltonian  Method          .... Hartree-Fock(GTOs)
 RI-approximation to the Coulomb term is turned on
   Number of AuxJ basis functions       .... 1196
   RIJ-COSX (HFX calculated with COS-X)).... on


General Settings:
 Integral files         IntName         .... smallComplexOptimized_Fragmented
 Hartree-Fock type      HFTyp           .... RHF
 Total Charge           Charge          ....    0
 Multiplicity           Mult            ....    1
 Number of Electrons    NEL             ....  184
 Basis Dimension        Dim             ....  394
 Nuclear Repulsion      ENuc            ....   2065.7126401133 Eh

Convergence Acceleration:
 AO-DIIS                CNVDIIS         .... on
   Start iteration      DIISMaxIt       ....    12
   Startup error        DIISStart       ....  0.200000
   # of expansion vecs  DIISMaxEq       ....     5
   Bias factor          DIISBfac        ....   1.050
   Max. coefficient     DIISMaxC        ....  10.000
 MO-DIIS                CNVKDIIS        .... off
 Trust-Rad. Augm. Hess. CNVTRAH         .... auto
   Auto Start mean grad. ratio tolernc. ....  1.125000
   Auto Start start iteration           ....     1
   Auto Start num. interpolation iter.  ....    10
   Max. Number of Micro iterations      ....    24
   Max. Number of Macro iterations      .... Maxiter - #DIIS iter
   Number of Davidson start vectors     ....     2
   Converg. threshold    (grad. norm)   ....   1.000e-05
   Grad. Scal. Fac. for Micro threshold ....   0.100
   Minimum threshold for Micro iter.    ....   1.000e-02
   NR start threshold (gradient norm)   ....   1.000e-04
   Initial trust radius                 ....   0.400
   Minimum AH scaling param. (alpha)    ....   1.000
   Maximum AH scaling param. (alpha)    .... 1000.000
   Quad. conv. algorithm                .... NR
   White noise on init. David. guess    .... on
   Maximum white noise                  ....   0.010
   Pseudo random numbers                .... off
   Inactive MOs                         .... canonical
   Orbital update algorithm             .... Taylor
   Preconditioner                       .... Diag
   Full preconditioner red. dimension   ....   250
 SOSCF                  CNVSOSCF        .... on
   Start iteration      SOSCFMaxIt      ....   150
   Startup grad/error   SOSCFStart      ....  0.003300
   Hessian update       SOSCFHessUp     .... L-BFGS
 Level Shifting         CNVShift        .... on
   Level shift para.    LevelShift      ....    0.2500
   Turn off err/grad.   ShiftErr        ....    0.0010
 Zerner damping         CNVZerner       .... off
 Static damping         CNVDamp         .... on
   Fraction old density DampFac         ....    0.7000
   Max. Damping (<1)    DampMax         ....    0.9800
   Min. Damping (>=0)   DampMin         ....    0.0000
   Turn off err/grad.   DampErr         ....    0.1000

SCF Procedure:
 Maximum # iterations   MaxIter         ....   125
 SCF integral mode      SCFMode         .... Direct
   Integral package                     .... SHARK and LIBINT hybrid scheme
 Reset frequency        DirectResetFreq ....    20
 Integral Threshold     Thresh          ....  2.500e-11 Eh
 Primitive CutOff       TCut            ....  2.500e-12 Eh

Convergence Tolerance:
 Convergence Check Mode ConvCheckMode   .... Total+1el-Energy
 Convergence forced     ConvForced      .... 1
 Energy Change          TolE            ....  1.000e-08 Eh
 1-El. energy change                    ....  1.000e-05 Eh
 Orbital Gradient       TolG            ....  1.000e-05
 Orbital Rotation angle TolX            ....  1.000e-05
 DIIS Error             TolErr          ....  5.000e-07

---------------------
INITIAL GUESS: MOREAD
---------------------
Guess MOs are being read from file: smallComplexOptimized_Fragmented.ges
Input Geometry matches current geometry (good)
Input basis set matches current basis set (good)
Occupation numbers will be reassigned to an Aufbau configuration
MOs were renormalized
MOs were reorthogonalized (Cholesky)
                      ------------------
                      INITIAL GUESS DONE (   0.1 sec)
                      ------------------
             **** ENERGY FILE WAS UPDATED (smallComplexOptimized_Fragmented.en.tmp) ****
Finished Guess after   0.2 sec
Maximum memory used throughout the entire GUESS-calculation: 31.6 MB

-------------------------------------------------------------------------------------------
                                      ORCA LEAN-SCF
                              memory conserving SCF solver
-------------------------------------------------------------------------------------------

----------------------------------------D-I-I-S--------------------------------------------
Iteration    Energy (Eh)           Delta-E    RMSDP     MaxDP     DIISErr   Damp  Time(sec)
-------------------------------------------------------------------------------------------
               ***  Starting incremental Fock matrix formation  ***
                              *** Initializing SOSCF ***
---------------------------------------S-O-S-C-F--------------------------------------
Iteration    Energy (Eh)           Delta-E    RMSDP     MaxDP     MaxGrad    Time(sec)
--------------------------------------------------------------------------------------
    1    -1428.6605707525313846     0.00e+00  1.45e-07  8.03e-06  1.09e-06    28.6
               *** Restarting incremental Fock matrix formation ***
    2    -1428.6605707538847128    -1.35e-09  1.09e-07  7.12e-06  2.38e-06    28.5
                  *** Gradient check signals convergence ***

               *****************************************************
               *                     SUCCESS                       *
               *           SCF CONVERGED AFTER   2 CYCLES          *
               *****************************************************

Recomputing exchange energy using gridx3       ... done (   50.007 sec)
Old exchange energy                            :   -153.767093453 Eh
New exchange energy                            :   -153.766829525 Eh
Exchange energy change after final integration :      0.000263928 Eh
Total energy after final integration           :  -1428.660306826 Eh
             **** ENERGY FILE WAS UPDATED (smallComplexOptimized_Fragmented.en.tmp) ****

----------------
TOTAL SCF ENERGY
----------------

Total Energy       :      -1428.66030682552423 Eh          -38875.82336 eV

Components:
Nuclear Repulsion  :       2065.71264011332642 Eh           56210.89864 eV
Electronic Energy  :      -3494.37321086721113 Eh          -95086.72918 eV
One Electron Energy:      -6286.65466017186009 Eh         -171068.57026 eV
Two Electron Energy:       2792.28144930464896 Eh           75981.84108 eV

Virial components:
Potential Energy   :      -2487.39686347871793 Eh          -67685.50972 eV
Kinetic Energy     :       1058.73655665319393 Eh           28809.68636 eV
Virial Ratio       :          2.34940113085517

---------------
SCF CONVERGENCE
---------------

  Last Energy change         ...    1.3533e-09  Tolerance :   1.0000e-08
  Last MAX-Density change    ...    7.1164e-06  Tolerance :   1.0000e-07
  Last RMS-Density change    ...    1.0890e-07  Tolerance :   5.0000e-09
  Last DIIS Error            ...    5.8489e-06  Tolerance :   5.0000e-07
  Last Orbital Gradient      ...    2.3828e-06  Tolerance :   1.0000e-05
  Last Orbital Rotation      ...    5.9612e-06  Tolerance :   1.0000e-05


----------------
ORBITAL ENERGIES
----------------

  NO   OCC          E(Eh)            E(eV) 
   0   2.0000     -20.669364      -562.4420 
   1   2.0000     -20.577331      -559.9376 
   2   2.0000     -20.576780      -559.9227 
   3   2.0000     -15.573737      -423.7829 
   4   2.0000     -15.532136      -422.6509 
   5   2.0000     -11.434268      -311.1422 
   6   2.0000     -11.327239      -308.2298 
   7   2.0000     -11.326496      -308.2096 
   8   2.0000     -11.322841      -308.1102 
   9   2.0000     -11.299141      -307.4653 
  10   2.0000     -11.296428      -307.3914 
  11   2.0000     -11.277420      -306.8742 
  12   2.0000     -11.268503      -306.6316 
  13   2.0000     -11.258806      -306.3677 
  14   2.0000     -11.258247      -306.3525 
  15   2.0000     -11.242731      -305.9303 
  16   2.0000     -11.242583      -305.9262 
  17   2.0000     -11.239499      -305.8423 
  18   2.0000      -7.753040      -210.9709 
  19   2.0000      -7.743435      -210.7096 
  20   2.0000      -5.611354      -152.6927 
  21   2.0000      -5.601961      -152.4371 
  22   2.0000      -5.596841      -152.2978 
  23   2.0000      -5.595904      -152.2723 
  24   2.0000      -5.586758      -152.0234 
  25   2.0000      -5.586615      -152.0195 
  26   2.0000      -2.306308       -62.7578 
  27   2.0000      -2.300711       -62.6055 
  28   2.0000      -2.299935       -62.5844 
  29   2.0000      -2.296938       -62.5029 
  30   2.0000      -2.290856       -62.3374 
  31   2.0000      -2.290747       -62.3344 
  32   2.0000      -2.285786       -62.1994 
  33   2.0000      -2.285761       -62.1987 
  34   2.0000      -2.276025       -61.9338 
  35   2.0000      -2.276009       -61.9334 
  36   2.0000      -1.457838       -39.6698 
  37   2.0000      -1.384963       -37.6868 
  38   2.0000      -1.361875       -37.0585 
  39   2.0000      -1.197445       -32.5841 
  40   2.0000      -1.168566       -31.7983 
  41   2.0000      -1.165419       -31.7127 
  42   2.0000      -1.054112       -28.6838 
  43   2.0000      -1.044033       -28.4096 
  44   2.0000      -1.035905       -28.1884 
  45   2.0000      -0.941390       -25.6165 
  46   2.0000      -0.939956       -25.5775 
  47   2.0000      -0.932791       -25.3825 
  48   2.0000      -0.922041       -25.0900 
  49   2.0000      -0.906002       -24.6536 
  50   2.0000      -0.853702       -23.2304 
  51   2.0000      -0.831380       -22.6230 
  52   2.0000      -0.813363       -22.1327 
  53   2.0000      -0.787248       -21.4221 
  54   2.0000      -0.774708       -21.0809 
  55   2.0000      -0.745848       -20.2956 
  56   2.0000      -0.730227       -19.8705 
  57   2.0000      -0.699623       -19.0377 
  58   2.0000      -0.693699       -18.8765 
  59   2.0000      -0.657955       -17.9039 
  60   2.0000      -0.641020       -17.4430 
  61   2.0000      -0.638542       -17.3756 
  62   2.0000      -0.633811       -17.2469 
  63   2.0000      -0.630699       -17.1622 
  64   2.0000      -0.615902       -16.7595 
  65   2.0000      -0.608714       -16.5639 
  66   2.0000      -0.596604       -16.2344 
  67   2.0000      -0.592756       -16.1297 
  68   2.0000      -0.587904       -15.9977 
  69   2.0000      -0.567182       -15.4338 
  70   2.0000      -0.565371       -15.3845 
  71   2.0000      -0.557380       -15.1671 
  72   2.0000      -0.556486       -15.1428 
  73   2.0000      -0.548435       -14.9237 
  74   2.0000      -0.544999       -14.8302 
  75   2.0000      -0.533021       -14.5042 
  76   2.0000      -0.526241       -14.3197 
  77   2.0000      -0.515711       -14.0332 
  78   2.0000      -0.508492       -13.8368 
  79   2.0000      -0.499339       -13.5877 
  80   2.0000      -0.481229       -13.0949 
  81   2.0000      -0.476860       -12.9760 
  82   2.0000      -0.467962       -12.7339 
  83   2.0000      -0.432492       -11.7687 
  84   2.0000      -0.424406       -11.5487 
  85   2.0000      -0.390774       -10.6335 
  86   2.0000      -0.385708       -10.4957 
  87   2.0000      -0.378532       -10.3004 
  88   2.0000      -0.343206        -9.3391 
  89   2.0000      -0.338828        -9.2200 
  90   2.0000      -0.333227        -9.0676 
  91   2.0000      -0.315423        -8.5831 
  92   0.0000      -0.032778        -0.8919 
  93   0.0000       0.080230         2.1832 
  94   0.0000       0.085983         2.3397 
  95   0.0000       0.097546         2.6544 
  96   0.0000       0.118748         3.2313 
  97   0.0000       0.125672         3.4197 
  98   0.0000       0.169120         4.6020 
  99   0.0000       0.183878         5.0036 
 100   0.0000       0.200062         5.4440 
 101   0.0000       0.209313         5.6957 
 102   0.0000       0.216210         5.8834 
*Only the first 10 virtual orbitals were printed.

                    ********************************
                    * MULLIKEN POPULATION ANALYSIS *
                    ********************************

-------------------------
MULLIKEN FRAGMENT CHARGES
-------------------------
 Fragment   0 :  -0.021149
 Fragment   1 :   0.021149
Sum of fragment charges:    0.0000000

---------------------------------
MULLIKEN FRAGMENT OVERLAP CHARGES
---------------------------------
                  0          1    
      0     144.606858   0.024396
      1       0.024396  61.183337

-----------------------
MULLIKEN ATOMIC CHARGES
-----------------------
   0 H :    0.083959
   1 H :    0.035254
   2 H :    0.060928
   3 H :    0.047056
   4 H :    0.049068
   5 H :    0.122482
   6 H :    0.221472
   7 H :    0.038932
   8 H :    0.056280
   9 H :    0.051519
  10 H :    0.039019
  11 H :   -0.017150
  12 H :    0.031044
  13 H :    0.027056
  14 H :    0.026231
  15 H :    0.039577
  16 H :   -0.004971
  17 H :    0.215607
  18 N :   -0.388652
  19 C :    0.006173
  20 C :    0.338303
  21 O :   -0.260910
  22 C :    0.179558
  23 O :   -0.451837
  24 C :   -0.021704
  25 C :   -0.271281
  26 C :    0.309234
  27 C :   -0.292482
  28 C :    0.344135
  29 N :   -0.635670
  30 C :    0.065273
  31 C :    0.037789
  32 C :    0.178053
  33 C :   -0.263814
  34 I :    0.095658
  35 O :   -0.346100
  36 I :    0.085502
  37 C :    0.169411
Sum of atomic charges:    0.0000000

--------------------------------
MULLIKEN REDUCED ORBITAL CHARGES
--------------------------------
  0 H s       :     0.893683  s :     0.893683
      pz      :     0.016578  p :     0.022358
      px      :     0.002661
      py      :     0.003119

  1 H s       :     0.942650  s :     0.942650
      pz      :     0.015614  p :     0.022097
      px      :     0.002924
      py      :     0.003558

  2 H s       :     0.913021  s :     0.913021
      pz      :     0.006579  p :     0.026051
      px      :     0.015885
      py      :     0.003587

  3 H s       :     0.926706  s :     0.926706
      pz      :     0.009276  p :     0.026239
      px      :     0.008196
      py      :     0.008768

  4 H s       :     0.924286  s :     0.924286
      pz      :     0.015690  p :     0.026646
      px      :     0.004097
      py      :     0.006859

  5 H s       :     0.832632  s :     0.832632
      pz      :     0.023631  p :     0.044886
      px      :     0.010798
      py      :     0.010457

  6 H s       :     0.709387  s :     0.709387
      pz      :     0.018856  p :     0.069141
      px      :     0.018508
      py      :     0.031777

  7 H s       :     0.936022  s :     0.936022
      pz      :     0.019467  p :     0.025045
      px      :     0.003540
      py      :     0.002038

  8 H s       :     0.916923  s :     0.916923
      pz      :     0.004876  p :     0.026798
      px      :     0.005244
      py      :     0.016678

  9 H s       :     0.921816  s :     0.921816
      pz      :     0.018535  p :     0.026665
      px      :     0.005224
      py      :     0.002906

 10 H s       :     0.935906  s :     0.935906
      pz      :     0.004204  p :     0.025076
      px      :     0.006615
      py      :     0.014257

 11 H s       :     0.993034  s :     0.993034
      pz      :     0.016232  p :     0.024116
      px      :     0.002423
      py      :     0.005462

 12 H s       :     0.944197  s :     0.944197
      pz      :     0.008961  p :     0.024759
      px      :     0.005173
      py      :     0.010625

 13 H s       :     0.948213  s :     0.948213
      pz      :     0.007128  p :     0.024731
      px      :     0.014712
      py      :     0.002891

 14 H s       :     0.949016  s :     0.949016
      pz      :     0.007918  p :     0.024752
      px      :     0.006381
      py      :     0.010453

 15 H s       :     0.936112  s :     0.936112
      pz      :     0.004505  p :     0.024311
      px      :     0.017226
      py      :     0.002580

 16 H s       :     0.980588  s :     0.980588
      pz      :     0.016475  p :     0.024383
      px      :     0.003796
      py      :     0.004112

 17 H s       :     0.709906  s :     0.709906
      pz      :     0.042443  p :     0.074487
      px      :     0.017985
      py      :     0.014058

 18 N s       :     3.723729  s :     3.723729
      pz      :     1.331021  p :     3.643055
      px      :     1.393921
      py      :     0.918113
      dz2     :     0.007818  d :     0.021868
      dxz     :     0.001229
      dyz     :     0.004803
      dx2y2   :     0.004071
      dxy     :     0.003946

 19 C s       :     3.104028  s :     3.104028
      pz      :     1.082780  p :     2.819037
      px      :     0.926283
      py      :     0.809974
      dz2     :     0.010503  d :     0.070762
      dxz     :     0.010835
      dyz     :     0.015143
      dx2y2   :     0.017734
      dxy     :     0.016547

 20 C s       :     3.454194  s :     3.454194
      pz      :     0.803945  p :     2.122349
      px      :     0.657869
      py      :     0.660536
      dz2     :     0.025901  d :     0.085153
      dxz     :     0.018557
      dyz     :     0.023192
      dx2y2   :     0.007202
      dxy     :     0.010302

 21 O s       :     3.825846  s :     3.825846
      pz      :     1.372589  p :     4.414144
      px      :     1.458465
      py      :     1.583090
      dz2     :     0.007355  d :     0.020920
      dxz     :     0.006147
      dyz     :     0.004613
      dx2y2   :     0.001427
      dxy     :     0.001378

 22 C s       :     3.087276  s :     3.087276
      pz      :     0.913207  p :     2.651017
      px      :     0.789445
      py      :     0.948365
      dz2     :     0.014782  d :     0.082149
      dxz     :     0.018006
      dyz     :     0.013723
      dx2y2   :     0.016149
      dxy     :     0.019489

 23 O s       :     3.765648  s :     3.765648
      pz      :     1.774938  p :     4.672657
      px      :     1.572829
      py      :     1.324890
      dz2     :     0.001729  d :     0.013532
      dxz     :     0.002915
      dyz     :     0.000982
      dx2y2   :     0.001558
      dxy     :     0.006348

 24 C s       :     3.031407  s :     3.031407
      pz      :     1.025604  p :     2.954071
      px      :     1.011493
      py      :     0.916974
      dz2     :     0.006451  d :     0.036226
      dxz     :     0.006895
      dyz     :     0.008034
      dx2y2   :     0.007327
      dxy     :     0.007519

 25 C s       :     3.074389  s :     3.074389
      pz      :     1.015529  p :     3.147628
      px      :     1.052410
      py      :     1.079689
      dz2     :     0.013454  d :     0.049264
      dxz     :     0.006806
      dyz     :     0.014035
      dx2y2   :     0.007672
      dxy     :     0.007297

 26 C s       :     3.073577  s :     3.073577
      pz      :     0.868512  p :     2.528403
      px      :     0.893889
      py      :     0.766003
      dz2     :     0.018971  d :     0.088785
      dxz     :     0.012183
      dyz     :     0.028007
      dx2y2   :     0.013115
      dxy     :     0.016509

 27 C s       :     2.957273  s :     2.957273
      pz      :     1.065664  p :     3.290286
      px      :     1.142536
      py      :     1.082085
      dz2     :     0.010243  d :     0.044923
      dxz     :     0.005197
      dyz     :     0.013405
      dx2y2   :     0.007834
      dxy     :     0.008244

 28 C s       :     2.904892  s :     2.904892
      pz      :     0.953884  p :     2.691209
      px      :     0.970979
      py      :     0.766345
      dz2     :     0.017300  d :     0.059765
      dxz     :     0.004672
      dyz     :     0.011520
      dx2y2   :     0.014956
      dxy     :     0.011317

 29 N s       :     3.607531  s :     3.607531
      pz      :     1.724258  p :     3.996059
      px      :     1.137625
      py      :     1.134176
      dz2     :     0.002753  d :     0.032080
      dxz     :     0.006397
      dyz     :     0.005797
      dx2y2   :     0.007483
      dxy     :     0.009650

 30 C s       :     3.218312  s :     3.218312
      pz      :     0.828729  p :     2.671468
      px      :     0.934006
      py      :     0.908733
      dz2     :     0.011818  d :     0.044947
      dxz     :     0.008537
      dyz     :     0.013497
      dx2y2   :     0.005719
      dxy     :     0.005376

 31 C s       :     3.210709  s :     3.210709
      pz      :     0.931375  p :     2.707754
      px      :     0.930057
      py      :     0.846322
      dz2     :     0.010088  d :     0.043748
      dxz     :     0.004252
      dyz     :     0.012862
      dx2y2   :     0.007827
      dxy     :     0.008721

 32 C s       :     2.991035  s :     2.991035
      pz      :     0.954932  p :     2.779054
      px      :     0.799196
      py      :     1.024926
      dz2     :     0.013197  d :     0.051858
      dxz     :     0.010039
      dyz     :     0.007030
      dx2y2   :     0.010890
      dxy     :     0.010702

 33 C s       :     2.992075  s :     2.992075
      pz      :     1.059457  p :     3.224875
      px      :     1.109913
      py      :     1.055506
      dz2     :     0.012250  d :     0.046864
      dxz     :     0.007246
      dyz     :     0.013835
      dx2y2   :     0.006911
      dxy     :     0.006622

 34 I s       :     3.948307  s :     3.948307
      pz      :     3.039852  p :    10.906835
      px      :     3.910091
      py      :     3.956891
      dz2     :     2.029299  d :    10.049201
      dxz     :     2.013660
      dyz     :     2.003676
      dx2y2   :     2.001733
      dxy     :     2.000832

 35 O s       :     3.724688  s :     3.724688
      pz      :     1.216451  p :     4.605873
      px      :     1.846585
      py      :     1.542838
      dz2     :     0.002748  d :     0.015539
      dxz     :     0.000859
      dyz     :     0.006009
      dx2y2   :     0.003658
      dxy     :     0.002265

 36 I s       :     3.947396  s :     3.947396
      pz      :     3.569096  p :    10.917612
      px      :     3.973118
      py      :     3.375398
      dz2     :     2.002648  d :    10.049490
      dxz     :     2.003906
      dyz     :     2.026519
      dx2y2   :     2.010476
      dxy     :     2.005941

 37 C s       :     2.994754  s :     2.994754
      pz      :     0.983122  p :     2.783222
      px      :     0.950395
      py      :     0.849704
      dz2     :     0.010562  d :     0.052614
      dxz     :     0.007719
      dyz     :     0.011906
      dx2y2   :     0.009107
      dxy     :     0.013320



                     *******************************
                     * LOEWDIN POPULATION ANALYSIS *
                     *******************************

------------------------
LOEWDIN FRAGMENT CHARGES
------------------------
 Fragment   0 :  -0.004532
 Fragment   1 :   0.004532

----------------------------
LOEWDIN FRAGMENT BOND ORDERS
----------------------------
                  0          1    
      0     190.052211   0.142464
      1       0.142464  87.293362

----------------------
LOEWDIN ATOMIC CHARGES
----------------------
   0 H :    0.031680
   1 H :    0.006422
   2 H :    0.032332
   3 H :    0.022674
   4 H :    0.015147
   5 H :    0.037856
   6 H :    0.081397
   7 H :    0.007182
   8 H :    0.034335
   9 H :    0.030723
  10 H :    0.013992
  11 H :   -0.014966
  12 H :    0.013993
  13 H :    0.010575
  14 H :    0.012154
  15 H :    0.022972
  16 H :   -0.011536
  17 H :    0.066983
  18 N :   -0.242372
  19 C :   -0.012862
  20 C :    0.237143
  21 O :   -0.114497
  22 C :    0.125498
  23 O :   -0.181968
  24 C :   -0.033918
  25 C :   -0.056313
  26 C :    0.102076
  27 C :   -0.225262
  28 C :    0.082671
  29 N :   -0.197862
  30 C :   -0.016981
  31 C :   -0.006959
  32 C :    0.065980
  33 C :   -0.213799
  34 I :    0.172599
  35 O :   -0.106624
  36 I :    0.148398
  37 C :    0.061138

-------------------------------
LOEWDIN REDUCED ORBITAL CHARGES
-------------------------------
  0 H s       :     0.900969  s :     0.900969
      pz      :     0.042272  p :     0.067351
      px      :     0.012069
      py      :     0.013010

  1 H s       :     0.926749  s :     0.926749
      pz      :     0.040244  p :     0.066830
      px      :     0.011623
      py      :     0.014963

  2 H s       :     0.899461  s :     0.899461
      pz      :     0.017844  p :     0.068207
      px      :     0.037858
      py      :     0.012505

  3 H s       :     0.909167  s :     0.909167
      pz      :     0.023103  p :     0.068159
      px      :     0.021799
      py      :     0.023257

  4 H s       :     0.914514  s :     0.914514
      pz      :     0.037343  p :     0.070339
      px      :     0.013327
      py      :     0.019670

  5 H s       :     0.837746  s :     0.837746
      pz      :     0.065424  p :     0.124398
      px      :     0.032117
      py      :     0.026856

  6 H s       :     0.735163  s :     0.735163
      pz      :     0.050625  p :     0.183440
      px      :     0.053739
      py      :     0.079075

  7 H s       :     0.922820  s :     0.922820
      pz      :     0.047817  p :     0.069998
      px      :     0.012218
      py      :     0.009963

  8 H s       :     0.895224  s :     0.895224
      pz      :     0.014230  p :     0.070441
      px      :     0.016156
      py      :     0.040054

  9 H s       :     0.897964  s :     0.897964
      pz      :     0.044392  p :     0.071313
      px      :     0.016434
      py      :     0.010487

 10 H s       :     0.921056  s :     0.921056
      pz      :     0.011693  p :     0.064952
      px      :     0.018943
      py      :     0.034315

 11 H s       :     0.950038  s :     0.950038
      pz      :     0.039526  p :     0.064928
      px      :     0.009973
      py      :     0.015429

 12 H s       :     0.921894  s :     0.921894
      pz      :     0.021953  p :     0.064112
      px      :     0.015927
      py      :     0.026232

 13 H s       :     0.925408  s :     0.925408
      pz      :     0.018076  p :     0.064017
      px      :     0.035545
      py      :     0.010395

 14 H s       :     0.923879  s :     0.923879
      pz      :     0.019829  p :     0.063967
      px      :     0.017451
      py      :     0.026687

 15 H s       :     0.911176  s :     0.911176
      pz      :     0.013391  p :     0.065853
      px      :     0.041637
      py      :     0.010824

 16 H s       :     0.946504  s :     0.946504
      pz      :     0.038765  p :     0.065032
      px      :     0.012302
      py      :     0.013965

 17 H s       :     0.743484  s :     0.743484
      pz      :     0.096473  p :     0.189533
      px      :     0.050912
      py      :     0.042148

 18 N s       :     3.376157  s :     3.376157
      pz      :     1.414576  p :     3.827846
      px      :     1.382114
      py      :     1.031156
      dz2     :     0.013437  d :     0.038368
      dxz     :     0.001239
      dyz     :     0.009398
      dx2y2   :     0.007570
      dxy     :     0.006724

 19 C s       :     2.879509  s :     2.879509
      pz      :     1.070372  p :     2.979933
      px      :     0.988125
      py      :     0.921435
      dz2     :     0.023434  d :     0.153421
      dxz     :     0.023739
      dyz     :     0.031528
      dx2y2   :     0.036223
      dxy     :     0.038496

 20 C s       :     3.176115  s :     3.176115
      pz      :     0.939429  p :     2.423590
      px      :     0.706925
      py      :     0.777236
      dz2     :     0.048624  d :     0.163152
      dxz     :     0.035688
      dyz     :     0.045323
      dx2y2   :     0.012236
      dxy     :     0.021281

 21 O s       :     3.584694  s :     3.584694
      pz      :     1.470118  p :     4.499718
      px      :     1.453676
      py      :     1.575924
      dz2     :     0.010972  d :     0.030084
      dxz     :     0.009327
      dyz     :     0.006446
      dx2y2   :     0.001568
      dxy     :     0.001772

 22 C s       :     2.843702  s :     2.843702
      pz      :     0.978371  p :     2.863637
      px      :     0.909943
      py      :     0.975323
      dz2     :     0.031421  d :     0.167162
      dxz     :     0.038541
      dyz     :     0.025768
      dx2y2   :     0.031892
      dxy     :     0.039539

 23 O s       :     3.455588  s :     3.455588
      pz      :     1.746372  p :     4.703344
      px      :     1.598816
      py      :     1.358156
      dz2     :     0.002750  d :     0.023036
      dxz     :     0.004058
      dyz     :     0.002393
      dx2y2   :     0.002855
      dxy     :     0.010980

 24 C s       :     2.827559  s :     2.827559
      pz      :     1.062715  p :     3.124214
      px      :     1.051893
      py      :     1.009607
      dz2     :     0.014383  d :     0.082145
      dxz     :     0.015341
      dyz     :     0.018061
      dx2y2   :     0.016937
      dxy     :     0.017422

 25 C s       :     2.855919  s :     2.855919
      pz      :     1.045225  p :     3.093317
      px      :     0.993969
      py      :     1.054123
      dz2     :     0.031173  d :     0.107077
      dxz     :     0.013936
      dyz     :     0.033222
      dx2y2   :     0.015525
      dxy     :     0.013219

 26 C s       :     2.831310  s :     2.831310
      pz      :     1.004387  p :     2.880917
      px      :     0.927850
      py      :     0.948679
      dz2     :     0.040803  d :     0.185698
      dxz     :     0.023884
      dyz     :     0.060133
      dx2y2   :     0.028267
      dxy     :     0.032611

 27 C s       :     2.915272  s :     2.915272
      pz      :     1.009531  p :     3.212699
      px      :     1.104008
      py      :     1.099159
      dz2     :     0.022940  d :     0.097292
      dxz     :     0.009369
      dyz     :     0.031363
      dx2y2   :     0.017166
      dxy     :     0.016453

 28 C s       :     2.819277  s :     2.819277
      pz      :     1.030343  p :     2.967018
      px      :     1.017154
      py      :     0.919521
      dz2     :     0.039265  d :     0.131034
      dxz     :     0.009486
      dyz     :     0.025049
      dx2y2   :     0.033691
      dxy     :     0.023544

 29 N s       :     3.154886  s :     3.154886
      pz      :     1.689483  p :     3.984092
      px      :     1.141944
      py      :     1.152664
      dz2     :     0.004895  d :     0.058884
      dxz     :     0.010060
      dyz     :     0.009222
      dx2y2   :     0.015404
      dxy     :     0.019304

 30 C s       :     2.857657  s :     2.857657
      pz      :     1.052666  p :     3.056403
      px      :     0.958123
      py      :     1.045614
      dz2     :     0.028852  d :     0.102921
      dxz     :     0.017660
      dyz     :     0.033546
      dx2y2   :     0.012344
      dxy     :     0.010518

 31 C s       :     2.856344  s :     2.856344
      pz      :     1.046244  p :     3.050749
      px      :     0.956248
      py      :     1.048257
      dz2     :     0.024814  d :     0.099865
      dxz     :     0.008096
      dyz     :     0.030493
      dx2y2   :     0.018128
      dxy     :     0.018334

 32 C s       :     2.826574  s :     2.826574
      pz      :     1.032070  p :     2.993295
      px      :     0.901701
      py      :     1.059524
      dz2     :     0.029684  d :     0.114151
      dxz     :     0.022033
      dyz     :     0.015859
      dx2y2   :     0.022653
      dxy     :     0.023921

 33 C s       :     2.912900  s :     2.912900
      pz      :     1.067335  p :     3.200905
      px      :     1.086265
      py      :     1.047305
      dz2     :     0.027512  d :     0.099994
      dxz     :     0.014007
      dyz     :     0.031485
      dx2y2   :     0.014459
      dxy     :     0.012531

 34 I s       :     3.807937  s :     3.807937
      pz      :     3.132475  p :    10.947321
      px      :     3.900444
      py      :     3.914402
      dz2     :     2.042647  d :    10.072142
      dxz     :     2.019910
      dyz     :     2.006214
      dx2y2   :     2.002407
      dxy     :     2.000964

 35 O s       :     3.416987  s :     3.416987
      pz      :     1.285068  p :     4.662610
      px      :     1.807611
      py      :     1.569931
      dz2     :     0.007298  d :     0.027027
      dxz     :     0.001744
      dyz     :     0.010467
      dx2y2   :     0.004880
      dxy     :     0.002637

 36 I s       :     3.808957  s :     3.808957
      pz      :     3.594163  p :    10.970643
      px      :     3.957631
      py      :     3.418849
      dz2     :     2.004834  d :    10.072002
      dxz     :     2.005750
      dyz     :     2.037873
      dx2y2   :     2.014792
      dxy     :     2.008754

 37 C s       :     2.827682  s :     2.827682
      pz      :     1.049082  p :     2.995166
      px      :     1.007767
      py      :     0.938317
      dz2     :     0.023279  d :     0.116014
      dxz     :     0.017237
      dyz     :     0.027013
      dx2y2   :     0.020109
      dxy     :     0.028376



                      *****************************
                      * MAYER POPULATION ANALYSIS *
                      *****************************

  NA   - Mulliken gross atomic population
  ZA   - Total nuclear charge
  QA   - Mulliken gross atomic charge
  VA   - Mayer's total valence
  BVA  - Mayer's bonded valence
  FA   - Mayer's free valence

  ATOM       NA         ZA         QA         VA         BVA        FA
  0 H      0.9160     1.0000     0.0840     0.9762     0.9762     0.0000
  1 H      0.9647     1.0000     0.0353     0.9814     0.9814    -0.0000
  2 H      0.9391     1.0000     0.0609     0.9905     0.9905     0.0000
  3 H      0.9529     1.0000     0.0471     0.9910     0.9910    -0.0000
  4 H      0.9509     1.0000     0.0491     0.9959     0.9959    -0.0000
  5 H      0.8775     1.0000     0.1225     0.9820     0.9820     0.0000
  6 H      0.7785     1.0000     0.2215     1.0037     1.0037    -0.0000
  7 H      0.9611     1.0000     0.0389     1.0273     1.0273    -0.0000
  8 H      0.9437     1.0000     0.0563     1.0082     1.0082    -0.0000
  9 H      0.9485     1.0000     0.0515     1.0141     1.0141     0.0000
 10 H      0.9610     1.0000     0.0390     0.9909     0.9909     0.0000
 11 H      1.0171     1.0000    -0.0171     0.9884     0.9884     0.0000
 12 H      0.9690     1.0000     0.0310     0.9858     0.9858     0.0000
 13 H      0.9729     1.0000     0.0271     0.9851     0.9851    -0.0000
 14 H      0.9738     1.0000     0.0262     0.9869     0.9869    -0.0000
 15 H      0.9604     1.0000     0.0396     0.9878     0.9878     0.0000
 16 H      1.0050     1.0000    -0.0050     0.9758     0.9758     0.0000
 17 H      0.7844     1.0000     0.2156     1.0061     1.0061     0.0000
 18 N      7.3887     7.0000    -0.3887     2.7442     2.7442     0.0000
 19 C      5.9938     6.0000     0.0062     3.7059     3.7059    -0.0000
 20 C      5.6617     6.0000     0.3383     3.1419     3.1419     0.0000
 21 O      8.2609     8.0000    -0.2609     2.3119     2.3119    -0.0000
 22 C      5.8204     6.0000     0.1796     3.9151     3.9151    -0.0000
 23 O      8.4518     8.0000    -0.4518     1.9475     1.9475     0.0000
 24 C      6.0217     6.0000    -0.0217     3.8975     3.8975     0.0000
 25 C      6.2713     6.0000    -0.2713     3.8732     3.8732     0.0000
 26 C      5.6908     6.0000     0.3092     4.0513     4.0513     0.0000
[...]
INTRA-FRAGMENT REF. ENERGY FOR FRAGMENT   1
-------------------------------------------

Nuclear repulsion     =      1133.470656026441
One electron energy   =     -3937.912592622771 (T=      701.150889232488, V=    -4639.063481855259)
Two electron energy   =      1735.036725881928 (J=     1842.800079293059, K=     -107.763353411131)
                        ----------------------
Total energy          =     -1069.405210714403

Kinetic energy        =       701.150889232488
Potential energy      =     -1770.556099946891
                        ----------------------
Virial ratio          =         2.525214083213


-------------------------------------------
INTRA-FRAGMENT REF. ENERGY FOR FRAGMENT   2
-------------------------------------------

Nuclear repulsion     =       298.405187476798
One electron energy   =     -1081.097602272080 (T=      357.585667420708, V=    -1438.683269692788)
Two electron energy   =       423.471616341157 (J=      469.467147204603, K=      -45.995530863446)
                        ----------------------
Total energy          =      -359.220798454125

Kinetic energy        =       357.585667420708
Potential energy      =      -716.806465874833
                        ----------------------
Virial ratio          =         2.004572697349


----------------------------------------------------
INTER-FRAGMENT REF. ENERGY FOR FRAGMENTs   2 AND   1
----------------------------------------------------

Nuclear repulsion     =       633.836796610090
Nuclear attraction    =     -1267.644474781823
Coulomb repulsion     =       633.781331482804
                        ----------------------
Sum of electrostatics =        -0.026346688929 (  -16.533 kcal/mol)

Two electron exchange =        -0.007950562302 (   -4.989 kcal/mol)
                        ---------------------- 
Total REF. interaction =       -0.034297251232 (  -21.522 kcal/mol)



Sum of INTRA-fragment REF. energies  =     -1428.626009168528
Sum of INTER-fragment REF. energies  =        -0.034297251232
                                      ---------------------
Total REF. energy                    =     -1428.660306419760


--------------------------------
CORRELATION ENERGY DECOMPOSITION
--------------------------------


--------------------------------------------------
INTER- vs INTRA-FRAGMENT CORRELATION ENERGIES (Eh)
--------------------------------------------------

                                   Fragment   1            Fragment   2            
                         ----------------------  ----------------------  
Intra strong pairs              -1.868497311863        -1.172719113048  sum=       -3.041216424911
Intra triples                   -0.066468066493        -0.051645252396  sum=       -0.118113318890
Intra weak pairs                -0.012129303787        -0.002944074777  sum=       -0.015073378563
Singles contribution            -0.000005158945        -0.000003647353  sum=       -0.000008806298
                         ----------------------  ----------------------  
                                -1.947099841088        -1.227312087574  sum=       -3.174411928662


Interaction correlation for Fragments   2 and   1:
--------------------------------------------------
Inter strong pairs               -0.002587480166 (   -1.624 kcal/mol)
Inter triples                    -0.000319124294 (   -0.200 kcal/mol)
Inter weak pairs                 -0.006034170445 (   -3.786 kcal/mol)
                          ----------------------
Total interaction                -0.008940774906 (   -5.610 kcal/mol)



Sum of INTRA-fragment correlation energies  =        -3.174411928662
Sum of INTER-fragment correlation energies  =        -0.008940774906
                                              ---------------------
Total correlation energy                    =        -3.183352703568


--------------------------------------------
INTER- vs INTRA-FRAGMENT TOTAL ENERGIES (Eh)
--------------------------------------------

                                   Fragment   1            Fragment   2            
                         ----------------------  ----------------------  
Intra REF. energy            -1069.405210714403      -359.220798454125  sum=    -1428.626009168529
Intra Correlation energy        -1.947099841088        -1.227312087574  sum=       -3.174411928662
                         ----------------------  ----------------------  
                             -1071.352310555492      -360.448110541699  sum=    -1431.800421097191


Interaction of Fragments   2 and   1:
-------------------------------------
Interfragment reference          -0.034297251232 (  -21.522 kcal/mol)
Interfragment correlation        -0.008940774906 (   -5.610 kcal/mol)
                          ----------------------
Total interaction                -0.043238026138 (  -27.132 kcal/mol)


Sum of INTRA-fragment total energies        =     -1431.800421097191
Sum of INTER-fragment total energies        =        -0.043238026138
                                              ---------------------
Total energy                                =     -1431.843659123329


---------------------------------------------
DECOMPOSITION OF CCSD STRONG PAIRS INTO      
    DOUBLE EXCITATION TYPES (Eh)             
---------------------------------------------

Foster-Boys localization is used for localizing PNOs

Intra fragment contributions: 
INTRA Fragment 1                       -1.867022284 
INTRA Fragment 2                       -1.170218541 

Charge transfer contributions: 
Charge Transfer 1 to 2                 -0.001899251 
Charge Transfer 2 to 1                 -0.002721167 

Dispersion contributions: 
Dispersion  2,1                        -0.001942662 

Singles contributions:                   
Singles energy                         -0.000008806 
 

------------------------------------------------- 
FINAL SUMMARY DLPNO-CCSD ENERGY DECOMPOSITION (Eh)
------------------------------------------------- 
 
Intrafragment REF. energy:                   
Intra fragment   1 (REF.)              -1069.405210714     
Intra fragment   2 (REF.)              -359.220798454     

Interaction of fragments  2 and  1:  
Electrostatics (REF.)                  -0.026346689 
Exchange (REF.)                        -0.007950562 
Dispersion (strong pairs)              -0.001942662 
Dispersion (weak pairs)                -0.006034170 

Sum of non dispersive correlation terms: 
Non dispersion (strong pairs)          -3.041870050  
Non dispersion (weak pairs)            -0.015073379  

#Time for LED analysis ..      60.8 (sec)



--------------------------------------------------------------------------------
                                    TIMINGS
--------------------------------------------------------------------------------


Total execution time                   ...     1965.173 sec

Localization of occupied MO's          ...       46.913 sec (  2.4%)
Fock Matrix Formation                  ...       58.518 sec (  3.0%)
Global overlap, Fock, MKN matrices     ...        0.255 sec (  0.0%)
Differential overlap integrals         ...        5.088 sec (  0.3%)
Organizing maps                        ...        0.071 sec (  0.0%)
RI 3-index integral generations        ...       29.087 sec (  1.5%)
RI-PNO integral transformation         ...      301.845 sec ( 15.4%)
Initial Guess                          ...       50.963 sec (  2.6%)
DIIS Solver                            ...        2.137 sec (  0.1%)
State Vector Update                    ...        0.027 sec (  0.0%)
Sigma-vector construction              ...      876.396 sec ( 44.6%)
  <0|H|D>                              ...        0.012 sec (  0.0% of sigma)
  <D|H|D>(0-ext)                       ...      160.810 sec ( 18.3% of sigma)
  <D|H|D>(2-ext Fock)                  ...        0.471 sec (  0.1% of sigma)
  <D|H|D>(2-ext)                       ...       85.613 sec (  9.8% of sigma)
  <D|H|D>(4-ext)                       ...       25.066 sec (  2.9% of sigma)
  <D|H|D>(4-ext-corr)                  ...      191.485 sec ( 21.8% of sigma)
  CCSD doubles correction              ...        7.211 sec (  0.8% of sigma)
  <S|H|S>                              ...       28.977 sec (  3.3% of sigma)
  <S|H|D>(1-ext)                       ...       35.542 sec (  4.1% of sigma)
  <D|H|S>(1-ext)                       ...        0.621 sec (  0.1% of sigma)
  <S|H|D>(3-ext)                       ...        1.963 sec (  0.2% of sigma)
  CCSD singles correction              ...        0.008 sec (  0.0% of sigma)
  Fock-dressing                        ...      209.350 sec ( 23.9% of sigma)
  Singles amplitudes                   ...        5.845 sec (  0.7% of sigma)
  (ik|jl)-dressing                     ...       97.781 sec ( 11.2% of sigma)
  (ij|ab),(ia|jb)-dressing             ...       25.176 sec (  2.9% of sigma)
  Pair energies                        ...        0.050 sec (  0.0% of sigma)
Total Time for computing (T)           ...      532.494 sec ( 27.1% of ALL)
Local Energy Decomposition             ...       60.760 sec (  3.1% of ALL)


Maximum memory used throughout the entire MDCI-calculation: 8213.3 MB

-------------------------   --------------------
FINAL SINGLE POINT ENERGY     -1431.843659697905
-------------------------   --------------------


------------------------------------------------------------------------------
                              ORCA PROPERTY CALCULATIONS
------------------------------------------------------------------------------

GBWName                                 ... smallComplexOptimized_Fragmented.gbw
Number of atoms                         ...     38
Number of basis functions               ...    394
Max core memory                         ...   8000 MB

Electric properties:
Dipole moment                           ... YES
Quadrupole moment                       ...  NO
Static polarizability (Dipole/Dipole)   ...  NO
Static polarizability (Dipole/Quad.)    ...  NO
Static polarizability (Quad./Quad.)     ...  NO
Static polarizability (Velocity)        ...  NO

Atomic electric properties:
Dipole moment                           ...  NO
Quadrupole moment                       ...  NO
Static polarizability                   ...  NO

Choice of electric origin               ... Center of mass
Position of electric origin             ...   174.337837   178.618456   -85.270531

General magnetic properties:
Magnetizability                         ...  NO

EPR properties:
g-Tensor (aka g-matrix)                 ...  NO
Zero-Field splitting spin-orbit         ...  NO
Zero-field splitting spin-spin          ...  NO
Hyperfine couplings                     ...  NO (   0 nuclei)
Quadrupole couplings                    ...  NO (   0 nuclei)
Contact density                         ...  NO (   0 nuclei)

NMR properties:
Chemical shifts                         ...  NO (   0 nuclei)
Spin-rotation constants                 ...  NO (   0 nuclei)
Spin-spin couplings                     ...  NO (   0 nuclei,    0 pairs)

Choice of magnetic origin               ... GIAO
Position of magnetic origin             ...     0.000000     0.000000     0.000000

Properties with geometric perturbations:
SCF Hessian                             ...  NO
IR spectrum                             ...  NO
VCD spectrum                            ...  NO
X-ray spectroscopy properties:
SCF XES/XAS/RIXS spectra                ...  NO


-------------
DIPOLE MOMENT
-------------

Method             : SCF
Type of density    : Electron Density
Multiplicity       :   1
Irrep              :   0
Energy             : -1428.6603068255242306 Eh
Relativity type    : 
Basis              : AO
                                X                 Y                 Z
Electronic contribution:    -27.149281622    -268.016855360     205.114675514
Nuclear contribution   :     26.924892471     267.808926568    -205.555314283
                        -----------------------------------------
Total Dipole Moment    :     -0.224389151      -0.207928792      -0.440638769
                        -----------------------------------------
Magnitude (a.u.)       :      0.536420916
Magnitude (Debye)      :      1.363473611



--------------------
Rotational spectrum 
--------------------
 
Rotational constants in cm-1:             0.005665             0.003499             0.002559 
Rotational constants in MHz :           169.840484           104.898519            76.721320 

Dipole components along the rotational axes: 
x,y,z [a.u.] :    -0.392396    -0.263028     0.254144 
x,y,z [Debye]:    -0.997391    -0.668565     0.645982 

 

Dipole moment calculation done in   0.1 sec 

Maximum memory used throughout the entire PROP-calculation: 29.2 MB

--------------------------------
SUGGESTED CITATIONS FOR THIS RUN
--------------------------------

Below you find a list of papers that are relevant to this ORCA run
We neither can nor want to force you to cite these papers, but we appreciate if you do
You receive ORCA, which is the product of decades of hard work by many enthusiastic individuals, for free
The only thing we kindly ask in return is that you cite our papers,
We deeply appreciate it, if you show your appreciation for ORCA by not just citing the generic ORCA reference.

Please note that relegating all ORCA citations to the supporting information does *not* help us.
SI sections are not indexed - citations you put there will not count into any citation statistics
But we need these citations in order to attract the funding resources that allow us to do what we are doing

Therefore, if you are a happy ORCA user, please consider citing a few of the papers listed below in the main body of your paper

In addition to the list printed below, the program has created the file smallComplexOptimized_Fragmented.bibtex that contains the list in bibtex format
You can import this file easily into all common literature databanks and citation aid programs


List of essential papers. We consider these as the minimum necessary citations

  1. Neese,F.
     Software update: the ORCA program system, version 5.0
     WIRES Comput. Molec. Sci., 2022 12(1)e1606
     doi.org/10.1002/wcms.1606

List of papers to cite with high priority. The work reported in these papers was absolutely
necessary for this run to complete.
Our perspective: the developers of density functionals and basis sets usually get cited in chemistry papers
Good! But without the algorithms to do something with them, the functionals or basis sets would not do anything.
Hence, in our opinion, the algorithm design and method developments papers are equally worthy of getting cited

  1. Neese,F.
     An improvement of the resolution of the identity approximation for the formation of the Coulomb matrix
     J. Comp. Chem., 2003 24(14)1740-1747
     doi.org/10.1002/jcc.10318
  2. Neese,F.; Wennmohs,F.; Hansen,A.; Becker,U.
     Efficient, approximate and parallel Hartree-Fock and hybrid DFT calculations. A 'chain-of-spheres' algorithm for the Hartree-Fock exchange
     Chem. Phys., 2009 356(1-3)98-109
     doi.org/10.1016/j.chemphys.2008.10.036
  3. Neese,F.; Hansen,A.; Liakos,D.G.
     Efficient and accurate approximations to the local coupled cluster singles doubles method using a truncated pair natural orbital basis
     J. Chem. Phys., 2009 131 064103
     doi.org/10.1063/1.3173827
  4. Neese,F.; Wennmohs,F.; Hansen,A.
     Efficient and accurate local approximations to coupled-electron pair approaches: An attempt to revive the pair natural orbital method
     J. Chem. Phys., 2009 130 114108
     doi.org/10.1063/1.3086717
  5. Riplinger,C.; Neese,F.
     An efficient and near linear scaling pair natural orbital based local coupled cluster method
     J. Chem. Phys., 2013 138(3)Art. No. 034106
     doi.org/10.1063/1.4773581
  6. Riplinger,C.; Sandhoefer,B.; Hansen,A.; Neese,F.
     Natural triple excitations in local coupled cluster calculations with pair natural orbitals
     J. Chem. Phys., 2013 139(13)Art. No. 134101
     doi.org/10.1063/1.4821834
  7. Riplinger,C.; Pinski,P.; Becker,U.; Valeev,E.F.; Neese,F.
     Sparse maps-A systematic infrastructure for reduced-scaling electronic structure methods. II. Linear scaling domain based pair natural orbital coupled cluster theory
     J. Chem. Phys., 2016 144 
     doi.org/10.1063/1.4939030
  8. Schneider,W.B.; Bistoni,G.; Sparta,M.; Saitow,M.; Riplinger,C.; Auer,A.A.; Neese,F.
     Decomposition of Intermolecular Interaction Energies within the Local Pair Natural Orbital Coupled Cluster Framework
     J. Theo. Comp. Chem., 2016 12 4778-4792
     doi.org/10.1021/acs.jctc.6b00523
  9. Bistoni,G.; Riplinger,C.; Minenkov,Y.; Cavallo,L.; Auer,A.A.; Neese,F.
     Treating Subvalence Correlation Effects in Domain Based Pair Natural Orbital Coupled Cluster Calculations: An Out-of-the-Box Approach
     J. Theo. Comp. Chem., 2017 13 3220-3227
     doi.org/10.1021/acs.jctc.7b00352
 10. Helmich-Paris,B.; de Souza,B.; Neese,F.; Izsák,R.
     An improved chain of spheres for exchange algorithm
     J. Chem. Phys., 2021 155 104109
     doi.org/doi: 10.1063/5.0058766.
 11. Neese,F.
     The SHARK Integral Generation and Digestion System
     J. Comp. Chem., 2022  1-16
     doi.org/10.1002/jcc.26942

List of suggested additional citations. These are papers that are important in the 'surrounding' of 
of this run, or papers that preceded the highly important papers. If you like your results we are grateful for a citation.

  1. Izsak,R.; Neese,F.
     An overlap fitted chain of spheres exchange method
     J. Chem. Phys., 2011 135 144105
     doi.org/10.1063/1.3646921
  2. Izsak,R.; Hansen,A.; Neese,F.
     The resolution of identity and chain of spheres approximations for the LPNO-CCSD singles Fock term
     Molec. Phys., 2012 110 2413-2417
     doi.org/10.1080/00268976.2012.687466
  3. Neese,F.
     The ORCA program system
     WIRES Comput. Molec. Sci., 2012 2(1)73-78
     doi.org/10.1002/wcms.81
  4. Izsak,R.; Neese,F.; Klopper,W.
     Robust fitting techniques in the chain of spheres approximation to the Fock exchange: The role of the complementary space
     J. Chem. Phys., 2013 139 
     doi.org/10.1063/1.4819264
  5. Neese,F.
     Software update: the ORCA program system, version 4.0
     WIRES Comput. Molec. Sci., 2018 8(1)1-6
     doi.org/10.1002/wcms.1327
  6. Neese,F.; Wennmohs,F.; Becker,U.; Riplinger,C.
     The ORCA quantum chemistry program package
     J. Chem. Phys., 2020 152 Art. No. L224108
     doi.org/10.1063/5.0004608
  7. Bistoni,G.
     Finding chemical concepts in the Hilbert space: Coupled cluster analyses of noncovalent interactions
     WIRES Comput. Molec. Sci., 2020 10(3)e1442
     doi.org/10.1002/wcms.1442

List of optional additional citations

  1. Neese,F.
     Approximate second-order SCF convergence for spin unrestricted wavefunctions
     Chem. Phys. Lett., 2000 325(1-3)93-98
     doi.org/10.1016/s0009-2614(00)00662-x

Timings for individual modules:

Sum of individual times          ...     2081.624 sec (=  34.694 min)
Startup calculation              ...        7.633 sec (=   0.127 min)   0.4 %
SCF iterations                   ...      107.803 sec (=   1.797 min)   5.2 %
Property integrals               ...        0.231 sec (=   0.004 min)   0.0 %
Property calculations            ...        0.434 sec (=   0.007 min)   0.0 %
MDCI module                      ...     1965.523 sec (=  32.759 min)  94.4 %
                             ****ORCA TERMINATED NORMALLY****
TOTAL RUN TIME: 0 days 0 hours 34 minutes 42 seconds 21 msec
