
                                 *****************
                                 * O   R   C   A *
                                 *****************

                                            #,                                       
                                            ###                                      
                                            ####                                     
                                            #####                                    
                                            ######                                   
                                           ########,                                 
                                     ,,################,,,,,                         
                               ,,#################################,,                 
                          ,,##########################################,,             
                       ,#########################################, ''#####,          
                    ,#############################################,,   '####,        
                  ,##################################################,,,,####,       
                ,###########''''           ''''###############################       
              ,#####''   ,,,,##########,,,,          '''####'''          '####       
            ,##' ,,,,###########################,,,                        '##       
           ' ,,###''''                  '''############,,,                           
         ,,##''                                '''############,,,,        ,,,,,,###''
      ,#''                                            '''#######################'''  
     '                                                          ''''####''''         
             ,#######,   #######,   ,#######,      ##                                
            ,#'     '#,  ##    ##  ,#'     '#,    #''#        ,####,   ,####,        
            ##       ##  ##   ,#'  ##            #'  '#       #'       #'  '#        
            ##       ##  #######   ##           ,######,      #####,   #    #        
            '#,     ,#'  ##    ##  '#,     ,#' ,#      #,     #,   #   #,  ,#        
             '#######'   ##     ##  '#######'  #'      '#     '####' # '####'        



                #########################################################
                #                        -***-                          #
                #          Department of theory and spectroscopy        #
                #                                                       #
                #                      Frank Neese                      #
                #                                                       #
                #     Directorship, Architecture, Infrastructure        #
                #                    SHARK, DRIVERS                     #
                #        Core code/Algorithms in most modules           #
                #                                                       #
                #        Max Planck Institute fuer Kohlenforschung      #
                #                Kaiser Wilhelm Platz 1                 #
                #                 D-45470 Muelheim/Ruhr                 #
                #                      Germany                          #
                #                                                       #
                #                  All rights reserved                  #
                #                        -***-                          #
                #########################################################


                         Program Version 6.0.0  -   RELEASE   -


 With contributions from (in alphabetic order):
   Daniel Aravena         : Magnetic Suceptibility
   Michael Atanasov       : Ab Initio Ligand Field Theory (pilot matlab implementation)
   Alexander A. Auer      : GIAO ZORA, VPT2 properties, NMR spectrum
   Ute Becker             : All parallelization in ORCA, NUMFREQ, NUMCALC
   Giovanni Bistoni       : ED, misc. LED, open-shell LED, HFLD
   Martin Brehm           : Molecular dynamics
   Dmytro Bykov           : pre 5.0 version of the SCF Hessian
   Marcos Casanova-Páez   : Triplet and SCS-CIS(D). UHF-(DLPNO)-IP/EA/STEOM-CCSD. UHF-CVS-IP/STEOM-CCSD
   Vijay G. Chilkuri      : MRCI spin determinant printing, contributions to CSF-ICE
   Pauline Colinet        : FMM embedding
   Dipayan Datta          : RHF DLPNO-CCSD density
   Achintya Kumar Dutta   : EOM-CC, STEOM-CC
   Nicolas Foglia         : Exact transition moments, OPA infrastructure, MCD improvements
   Dmitry Ganyushin       : Spin-Orbit,Spin-Spin,Magnetic field MRCI
   Miquel Garcia          : C-PCM and meta-GGA Hessian, CCSD/C-PCM, Gaussian charge scheme
   Tiago L. C. Gouveia    : GS-ROHF, GS-ROCIS
   Yang Guo               : DLPNO-NEVPT2, F12-NEVPT2, CIM, IAO-localization
   Andreas Hansen         : Spin unrestricted coupled pair/coupled cluster methods
   Ingolf Harden          : AUTO-CI MPn and infrastructure 
   Benjamin Helmich-Paris : MC-RPA, TRAH-(SCF,CASSCF), AVAS, COSX integrals, SCF dyn. polar.
   Lee Huntington         : MR-EOM, pCC
   Robert Izsak           : Overlap fitted RIJCOSX, COSX-SCS-MP3, EOM
   Riya Kayal             : Wick's Theorem for AUTO-CI, AUTO-CI UHF-CCSDT
   Emily Kempfer          : AUTO-CI, RHF CISDT and CCSDT
   Christian Kollmar      : KDIIS, OOCD, Brueckner-CCSD(T), CCSD density, CASPT2, CASPT2-K, improved NEVPT2
   Axel Koslowski         : Symmetry handling
   Simone Kossmann        : Meta GGA functionals, TD-DFT gradient, OOMP2, (MP2 Hessian; deprecated post 5.0)
   Lucas Lang             : DCDCAS
   Marvin Lechner         : AUTO-CI (C++ implementation), FIC-MRCC
   Spencer Leger          : CASSCF response
   Dagmar Lenk            : GEPOL surface, SMD, ORCA-2-JSON
   Dimitrios Liakos       : Extrapolation schemes; Compound Job, initial MDCI parallelization
   Dimitrios Manganas     : Further ROCIS development; embedding schemes. LFT, Crystal Embedding
   Dimitrios Pantazis     : SARC Basis sets
   Anastasios Papadopoulos: AUTO-CI, single reference methods and gradients
   Taras Petrenko         : pre 6.0 DFT Hessian and TD-DFT gradient, (ASA, deprecated), ECA, 1-Electron XAS/XES, NRVS
   Peter Pinski           : DLPNO-MP2, DLPNO-MP2 Gradient
   Christoph Reimann      : Effective Core Potentials
   Marius Retegan         : Local ZFS, SOC
   Christoph Riplinger    : Optimizer, TS searches, QM/MM, DLPNO-CCSD(T), (RO)-DLPNO pert. Triples
   Michael Roemelt        : Original ROCIS implementation
   Masaaki Saitow         : Open-shell DLPNO-CCSD energy and density
   Barbara Sandhoefer     : DKH picture change effects
   Kantharuban Sivalingam : CASSCF convergence/infrastructure, NEVPT2 and variants, FIC-MRCI
   Bernardo de Souza      : ESD, SOC TD-DFT
   Georgi Stoychev        : AutoAux, RI-MP2 NMR, DLPNO-MP2 response, X2C
   Van Anh Tran           : RI-MP2 g-tensors
   Willem Van den Heuvel  : Paramagnetic NMR
   Zikuan Wang            : NOTCH, Electric field optimization 
   Frank Wennmohs         : Technical directorship and infrastructure
   Hang Xu                : AUTO-CI-Response properties 


 We gratefully acknowledge several colleagues who have allowed us to
 interface, adapt or use parts of their codes:
   Stefan Grimme, W. Hujo, H. Kruse, P. Pracht,  : VdW corrections, initial TS optimization,
                  C. Bannwarth, S. Ehlert,         DFT functionals, gCP, sTDA/sTD-DF
                  L. Wittmann, M. Mueller
   Ed Valeev, F. Pavosevic, A. Kumar             : LibInt (2-el integral package), F12 methods
   Garnet Chan, S. Sharma, J. Yang, R. Olivares  : DMRG
   Ulf Ekstrom                                   : XCFun DFT Library
   Mihaly Kallay                                 : mrcc  (arbitrary order and MRCC methods)
   Frank Weinhold                                : gennbo (NPA and NBO analysis)
   Simon Mueller                                 : openCOSMO-RS
   Christopher J. Cramer and Donald G. Truhlar   : smd solvation model
   Lars Goerigk                                  : TD-DFT with DH, B97 family of functionals
   V. Asgeirsson, H. Jonsson                     : NEB implementation
   FAccTs GmbH                                   : IRC, NEB, NEB-TS, DLPNO-Multilevel, CI-OPT
                                                   MM, QMMM, 2- and 3-layer-ONIOM, Crystal-QMMM,
                                                   LR-CPCM, SF, NACMEs, symmetry and pop. for TD-DFT,
                                                   nearIR, NL-DFT gradient (VV10), updates on ESD,
                                                   ML-optimized integration grids, MBIS, APM,
                                                   GOAT, DOCKER, SOLVATOR, interface openCOSMO-RS
   S Lehtola, MJT Oliveira, MAL Marques          : LibXC Library
   Liviu Ungur et al                             : ANISO software


 Your calculation uses the libint2 library for the computation of 2-el integrals
 For citations please refer to: http://libint.valeyev.net

 Your ORCA version has been built with support for libXC version: 6.2.2
 For citations please refer to: https://libxc.gitlab.io

 This ORCA versions uses:
   CBLAS   interface :  Fast vector & matrix operations
   LAPACKE interface :  Fast linear algebra routines
   Shared memory     :  Shared parallel matrices


Warning: RI is on but no J-basis has been assigned. Assigning Def2/J (nothing to worry about!)
================================================================================

cite the ECPs for I  [Def2-ECP] as follows:
Ce-Yb(ecp-28): M. Dolg, H. Stoll, H.Preuss, J. Chem. Phys., 1989, 90, 1730-1734.
Y-Cd(ecp-28), Hf-Hg(ecp-46): D. Andrae,U. Haeussermann, M. Dolg, H. Stoll, H. Preuss, Theor. Chim. Acta, 1990, 77, 123-141.
In-Sb(ecp-28), Tl-Bi(ecp-46): B. Metz, H. Stoll, M. Dolg, J. Chem. Phys., 2000, 113, 2563-2569.
Te-Xe(ecp-28), Po-Rn(ecp-46): K. A. Peterson, D. Figgen, E. Goll, H. Stoll, M. Dolg, J. Chem. Phys., 2003, 119, 11113-11123.
Rb(ecp-28), Cs(ecp-46): T. Leininger, A. Nicklass, W. Kuechle, H. Stoll, M. Dolg, A. Bergner, Chem. Phys. Lett., 1996, 255, 274-280.
Sr(ecp-28), Ba(ecp-46): M. Kaupp, P. V. Schleyer, H. Stoll and H. Preuss, J. Chem. Phys., 1991, 94, 1360-1366.
La(ecp-46): M. Dolg, H. Stoll, A. Savin, H. Preuss, Theor. Chim. Acta, 1989, 75, 173-194.
Lu(ecp-28): X. Cao, M. Dolg, J. Chem. Phys., 2001, 115, 7348-7355.

ECP parameters for I  [Def2-ECP] have been obtained from:
TURBOMOLE (7.0.2)

----- Orbital basis set information -----
Your calculation utilizes the basis: def2-TZVP
   F. Weigend and R. Ahlrichs, Phys. Chem. Chem. Phys. 7, 3297 (2005).

----- AuxJ basis set information -----
Your calculation utilizes the auxiliary basis: def2/J
   F. Weigend, Phys. Chem. Chem. Phys. 8, 1057 (2006).

----- AuxC basis set information -----
Your calculation utilizes the auxiliary basis: def2-TZVP/C
  H-La, Hf-Rn : A. Hellweg, C. Hattig, S. Hofener and W. Klopper, Theor. Chem. Acc. 117, 587 (2007).
        Ce-Lu : J. Chmela and M. E. Harding, Mol. Phys. (2018).

================================================================================
                                        WARNINGS
                       Please study these warnings very carefully!
================================================================================


WARNING: Post HF methods need fully converged wavefunctions
  ===> : Setting SCFConvForced true
         You can overwrite this default with %scf ConvForced false 


WARNING: MDCI localization with Augmented Hessian Foster-Boys
  ===> : Switching off randomization!

================================================================================
                                       INPUT FILE
================================================================================
NAME = smallComplexOptimized_Fragmented.txt
|  1> ! DLPNO-CCSD(T) def2-TZVP def2-TZVP/C TightSCF RIJCOSX LED
|  2> 
|  3> *xyz 0 1
|  4> H(2) 94.03847900363128 95.56968873089886 -47.45454979409845
|  5> H(2) 93.27480714279287 96.47396852739881 -50.26555167908275
|  6> H(2) 91.3820536990671 94.79394468963362 -49.90630467715645
|  7> H(2) 92.97944576730984 94.07119266069336 -50.07263368634954
|  8> H(2) 92.2457582586205 94.22023321699045 -48.48185090016032
|  9> H(2) 94.94599254061113 97.73909302232931 -49.180002723945
| 10> H(2) 92.54087957181535 97.77527788193504 -48.37292694760338
| 11> H(1) 90.81091290640504 97.084690986993 -46.5780346591331
| 12> H(1) 92.28655872467832 92.25346024200871 -43.61731856246633
| 13> H(1) 90.89291879073602 94.75276147613863 -46.83440660404441
| 14> H(1) 93.3329175660635 97.5448581371073 -45.24922823026197
| 15> H(1) 92.814287626496 98.80715230214386 -46.37389006921541
| 16> H(1) 93.24162195583997 99.22264427328545 -44.71045817447565
| 17> H(1) 89.6081854825604 99.32058650021226 -44.50021953198504
| 18> H(1) 91.08509928948806 100.28113283726921 -44.43136587612807
| 19> H(1) 89.64417014945856 97.1895015139239 -45.26872693162088
| 20> H(1) 90.4174157239609 99.80531765438535 -45.99779093389682
| 21> H(1) 91.74837611422923 96.45384841803603 -41.87095357364787
| 22> N(2) 94.8795681338068 97.31169285466524 -48.23695338999568
| 23> C(2) 94.28332716262726 95.9912547397665 -48.43095151040644
| 24> C(2) 95.25573762322547 95.02248212655729 -49.10008340242457
| 25> O(2) 95.77398138063315 95.29841968805736 -50.17963033920137
| 26> C(2) 92.99501211139518 96.08159529546519 -49.27954132879258
| 27> O(2) 92.05928217028189 96.9694888053435 -48.64699717158231
| 28> C(2) 92.36019262079112 94.7028877508946 -49.44413329214354
| 29> C(1) 91.1747663532547 95.75021850910848 -44.95655271175993
| 30> C(1) 91.56140310608849 95.5822703616219 -43.62162504004875
| 31> C(1) 91.96164715972675 94.33445604375484 -43.15024826900864
| 32> C(1) 90.7088575487796 97.09721203956359 -45.48911331004795
| 33> N(1) 91.38312294943528 98.25228346466449 -44.86620574535659
| 34> C(1) 91.97814364712971 93.21684173773455 -43.99735620637756
| 35> C(1) 91.19537179685118 94.62363366088144 -45.80561823787297
| 36> C(1) 92.76595771634025 98.46995445416428 -45.33647199889184
| 37> C(1) 91.5928323160744 93.36581781197711 -45.33106319833271
| 38> I(1) 92.50129642550272 94.15972551677119 -41.12166431770961
| 39> O(1) 91.57081910688392 96.67696681531916 -42.80166751139753
| 40> I(1) 91.59665572318659 91.73505725039921 -46.64146434097875
| 41> C(1) 90.57843163421632 99.48016300190164 -44.96641012239646
| 42> **                         ****END OF INPUT****
================================================================================

                       ****************************
                       * Single Point Calculation *
                       ****************************

---------------------------------
CARTESIAN COORDINATES (ANGSTROEM)
---------------------------------
  H     94.038479   95.569689  -47.454550
  H     93.274807   96.473969  -50.265552
  H     91.382054   94.793945  -49.906305
  H     92.979446   94.071193  -50.072634
  H     92.245758   94.220233  -48.481851
  H     94.945993   97.739093  -49.180003
  H     92.540880   97.775278  -48.372927
  H     90.810913   97.084691  -46.578035
  H     92.286559   92.253460  -43.617319
  H     90.892919   94.752761  -46.834407
  H     93.332918   97.544858  -45.249228
  H     92.814288   98.807152  -46.373890
  H     93.241622   99.222644  -44.710458
  H     89.608185   99.320587  -44.500220
  H     91.085099  100.281133  -44.431366
  H     89.644170   97.189502  -45.268727
  H     90.417416   99.805318  -45.997791
  H     91.748376   96.453848  -41.870954
  N     94.879568   97.311693  -48.236953
  C     94.283327   95.991255  -48.430952
  C     95.255738   95.022482  -49.100083
  O     95.773981   95.298420  -50.179630
  C     92.995012   96.081595  -49.279541
  O     92.059282   96.969489  -48.646997
  C     92.360193   94.702888  -49.444133
  C     91.174766   95.750219  -44.956553
  C     91.561403   95.582270  -43.621625
  C     91.961647   94.334456  -43.150248
  C     90.708858   97.097212  -45.489113
  N     91.383123   98.252283  -44.866206
  C     91.978144   93.216842  -43.997356
  C     91.195372   94.623634  -45.805618
  C     92.765958   98.469954  -45.336472
  C     91.592832   93.365818  -45.331063
  I     92.501296   94.159726  -41.121664
  O     91.570819   96.676967  -42.801668
  I     91.596656   91.735057  -46.641464
  C     90.578432   99.480163  -44.966410

----------------------------
CARTESIAN COORDINATES (A.U.)
----------------------------
  NO LB      ZA    FRAG     MASS         X           Y           Z
   0 H     1.0000    2     1.008  177.706971  180.600538  -89.676103
   1 H     1.0000    2     1.008  176.263841  182.309380  -94.988127
   2 H     1.0000    2     1.008  172.687055  179.134595  -94.309248
   3 H     1.0000    2     1.008  175.705689  177.768791  -94.623564
   4 H     1.0000    2     1.008  174.319220  178.050437  -91.617421
   5 H     1.0000    2     1.008  179.421923  184.700118  -92.936736
   6 H     1.0000    2     1.008  174.876919  184.768498  -91.411584
   7 H     1.0000    1     1.008  171.607755  183.463478  -88.019729
   8 H     1.0000    1     1.008  174.396322  174.333775  -82.424787
   9 H     1.0000    1     1.008  171.762724  179.056770  -88.504202
  10 H     1.0000    1     1.008  176.373653  184.333068  -85.508649
  11 H     1.0000    1     1.008  175.393585  186.718458  -87.633952
  12 H     1.0000    1     1.008  176.201130  187.503624  -84.490521
  13 H     1.0000    1     1.008  169.334930  187.688708  -84.093228
  14 H     1.0000    1     1.008  172.125893  189.503877  -83.963113
  15 H     1.0000    1     1.008  169.402931  183.661541  -85.545496
  16 H     1.0000    1     1.008  170.864153  188.604717  -86.923228
  17 H     1.0000    1     1.008  173.379304  182.271358  -79.124635
  18 N     7.0000    2    14.007  179.296399  183.892449  -91.154631
  19 C     6.0000    2    12.011  178.169667  181.397183  -91.521235
  20 C     6.0000    2    12.011  180.007257  179.566468  -92.785711
  21 O     8.0000    2    15.999  180.986596  180.087914  -94.825759
  22 C     6.0000    2    12.011  175.735105  181.567902  -93.124837
  23 O     8.0000    2    15.999  173.966831  183.245777  -91.929502
  24 C     6.0000    2    12.011  174.535470  178.962522  -93.435871
  25 C     6.0000    1    12.011  172.295339  180.941690  -84.955573
  26 C     6.0000    1    12.011  173.025976  180.624314  -82.432925
  27 C     6.0000    1    12.011  173.782328  178.266287  -81.542152
  28 C     6.0000    1    12.011  171.414899  183.487139  -85.961966
  29 N     7.0000    1    14.007  172.689076  185.669908  -84.784842
  30 C     6.0000    1    12.011  173.813502  176.154302  -83.142954
  31 C     6.0000    1    12.011  172.334277  178.812753  -86.560074
  32 C     6.0000    1    12.011  175.302255  186.081246  -85.673516
  33 C     6.0000    1    12.011  173.085369  176.435826  -85.663295
  34 I    25.0000*   1   126.900  174.802117  177.936094  -77.708684
  35 O     8.0000    1    15.999  173.043770  182.692991  -80.883430
  36 I    25.0000*   1   126.900  173.092594  173.354135  -88.139594
  37 C     6.0000    1    12.011  171.168429  187.990264  -84.974200
* core charge reduced due to ECP

----------------------------------------------
CARTESIAN COORDINATES OF FRAGMENTS (ANGSTROEM)
----------------------------------------------

 FRAGMENT 1 
  H    90.810913   97.084691  -46.578035
  H    92.286559   92.253460  -43.617319
  H    90.892919   94.752761  -46.834407
  H    93.332918   97.544858  -45.249228
  H    92.814288   98.807152  -46.373890
  H    93.241622   99.222644  -44.710458
  H    89.608185   99.320587  -44.500220
  H    91.085099  100.281133  -44.431366
  H    89.644170   97.189502  -45.268727
  H    90.417416   99.805318  -45.997791
  H    91.748376   96.453848  -41.870954
  C    91.174766   95.750219  -44.956553
  C    91.561403   95.582270  -43.621625
  C    91.961647   94.334456  -43.150248
  C    90.708858   97.097212  -45.489113
  N    91.383123   98.252283  -44.866206
  C    91.978144   93.216842  -43.997356
  C    91.195372   94.623634  -45.805618
  C    92.765958   98.469954  -45.336472
  C    91.592832   93.365818  -45.331063
  I    92.501296   94.159726  -41.121664
  O    91.570819   96.676967  -42.801668
  I    91.596656   91.735057  -46.641464
  C    90.578432   99.480163  -44.966410

 FRAGMENT 2 
  H    94.038479   95.569689  -47.454550
  H    93.274807   96.473969  -50.265552
  H    91.382054   94.793945  -49.906305
  H    92.979446   94.071193  -50.072634
  H    92.245758   94.220233  -48.481851
  H    94.945993   97.739093  -49.180003
  H    92.540880   97.775278  -48.372927
  N    94.879568   97.311693  -48.236953
  C    94.283327   95.991255  -48.430952
  C    95.255738   95.022482  -49.100083
  O    95.773981   95.298420  -50.179630
  C    92.995012   96.081595  -49.279541
  O    92.059282   96.969489  -48.646997
  C    92.360193   94.702888  -49.444133

--------------------------------
INTERNAL COORDINATES (ANGSTROEM)
--------------------------------
 H      0   0   0     0.000000000000     0.00000000     0.00000000
 H      1   0   0     3.050024304621     0.00000000     0.00000000
 H      2   1   0     2.556179591224    82.01066764     0.00000000
 H      3   2   1     1.761163608050    65.47069589   290.76659547
 H      4   3   2     1.758152530546    60.08324857   102.70258357
 H      2   1   3     2.360469689607    63.75498734   169.49706651
 H      2   1   3     2.411241192799    60.84411324    95.75522194
 H      7   2   1     2.586761150572   127.16531213   291.66156648
 H      5   4   3     5.247240748967   143.49383622   156.87384258
 H      5   4   3     2.197233187776   162.91813737   351.77765025
 H      8   7   2     2.887557416709    72.10057312   118.94795614
 H     11   8   7     1.768396964852    64.21075064    48.34911398
 H     11   8   7     1.764532340369   104.29104962    94.25928258
 H      8   7   2     3.280716035366   120.17820467   192.39481262
 H     14   8   7     1.763140517557    95.10223517   327.13843338
 H      8   7   2     1.756861016918   160.96622235   197.24083164
 H     15  14   8     1.768018352151    60.16169173    49.43669046
 H     11   8   7     3.887648836406    89.95307098   183.08976478
 N      6   2   1     1.037509109069    98.73704715   351.45226404
 C      1   2   3     1.091342674143    28.00371978   155.47724700
 C     20   1   2     1.527036335161   106.84868989   243.63032110
 O     21  20   1     1.228877422139   120.73301972   185.26402464
 C      2   1   3     1.097478210997    29.51917252    28.43340144
 O      7   2   1     0.977929742257    59.01805686   278.71825025
 C      5   4   3     1.082607049794    35.84953551   323.37586939
 C     16   8   7     2.124079341873    65.83000737   230.80738894
 C     26  16   8     1.399902299300   114.86364027   146.74874178
 C     27  26  16     1.392634889202   120.63988675   146.33233558
 C     16   8   7     1.091167613681    36.52887104   273.09711918
 N     29  16   8     1.475411014516   107.12304960   121.17155628
 C      9   5   4     1.080579648687    48.51423109   156.57405387
 C     10   5   4     1.080072829003   120.84979758   194.00667274
 C     13  11   8     1.088435455554    35.85140636   348.66554195
 C     31   9   5     1.396220982841   120.65342034    23.72983194
 I     28  27  26     2.106396196014   118.28980291   180.87753891
 O     18  11   8     0.973414990631    34.83145549   350.57606227
 I     34  31   9     2.092019546345   120.97455211     0.02661768
 C     14   8   7     1.088198475133    60.11542181   335.53607229

---------------------------
INTERNAL COORDINATES (A.U.)
---------------------------
 H      0   0   0     0.000000000000     0.00000000     0.00000000
 H      1   0   0     5.763710637538     0.00000000     0.00000000
 H      2   1   0     4.830479376531    82.01066764     0.00000000
 H      3   2   1     3.328116896244    65.47069589   290.76659547
 H      4   3   2     3.322426784392    60.08324857   102.70258357
 H      2   1   3     4.460641260780    63.75498734   169.49706651
 H      2   1   3     4.556585497220    60.84411324    95.75522194
 H      7   2   1     4.888270148447   127.16531213   291.66156648
 H      5   4   3     9.915847974299   143.49383622   156.87384258
 H      5   4   3     4.152168977259   162.91813737   351.77765025
 H      8   7   2     5.456692713554    72.10057312   118.94795614
 H     11   8   7     3.341785959629    64.21075064    48.34911398
 H     11   8   7     3.334482877745   104.29104962    94.25928258
 H      8   7   2     6.199654830006   120.17820467   192.39481262
 H     14   8   7     3.331852713803    95.10223517   327.13843338
 H      8   7   2     3.319986177337   160.96622235   197.24083164
 H     15  14   8     3.341070485313    60.16169173    49.43669046
 H     11   8   7     7.346591605665    89.95307098   183.08976478
 N      6   2   1     1.960608077589    98.73704715   351.45226404
 C      1   2   3     2.062338772391    28.00371978   155.47724700
 C     20   1   2     2.885680470000   106.84868989   243.63032110
 O     21  20   1     2.322241780002   120.73301972   185.26402464
 C      2   1   3     2.073933256729    29.51917252    28.43340144
 O      7   2   1     1.848019391081    59.01805686   278.71825025
 C      5   4   3     2.045830834764    35.84953551   323.37586939
 C     16   8   7     4.013928242860    65.83000737   230.80738894
 C     26  16   8     2.645431959924   114.86364027   146.74874178
 C     27  26  16     2.631698545136   120.63988675   146.33233558
 C     16   8   7     2.062007956062    36.52887104   273.09711918
 N     29  16   8     2.788122752407   107.12304960   121.17155628
 C      9   5   4     2.041999601907    48.51423109   156.57405387
 C     10   5   4     2.041041851506   120.84979758   194.00667274
 C     13  11   8     2.056844925447    35.85140636   348.66554195
 C     31   9   5     2.638475280004   120.65342034    23.72983194
 I     28  27  26     3.980511939999   118.28980291   180.87753891
 O     18  11   8     1.839487746946    34.83145549   350.57606227
 I     34  31   9     3.953344009401   120.97455211     0.02661768
 C     14   8   7     2.056397097353    60.11542181   335.53607229

---------------------
BASIS SET INFORMATION
---------------------
There are 5 groups of distinct atoms

 Group   1 Type H   : 5s1p contracted to 3s1p pattern {311/1}
 Group   2 Type N   : 11s6p2d1f contracted to 5s3p2d1f pattern {62111/411/11/1}
 Group   3 Type C   : 11s6p2d1f contracted to 5s3p2d1f pattern {62111/411/11/1}
 Group   4 Type O   : 11s6p2d1f contracted to 5s3p2d1f pattern {62111/411/11/1}
 Group   5 Type I   : 11s10p8d2f contracted to 6s5p3d2f pattern {521111/34111/611/11}

Atom   0H    basis set group =>   1
Atom   1H    basis set group =>   1
Atom   2H    basis set group =>   1
Atom   3H    basis set group =>   1
Atom   4H    basis set group =>   1
Atom   5H    basis set group =>   1
Atom   6H    basis set group =>   1
Atom   7H    basis set group =>   1
Atom   8H    basis set group =>   1
Atom   9H    basis set group =>   1
Atom  10H    basis set group =>   1
Atom  11H    basis set group =>   1
Atom  12H    basis set group =>   1
Atom  13H    basis set group =>   1
Atom  14H    basis set group =>   1
Atom  15H    basis set group =>   1
Atom  16H    basis set group =>   1
Atom  17H    basis set group =>   1
Atom  18N    basis set group =>   2
Atom  19C    basis set group =>   3
Atom  20C    basis set group =>   3
Atom  21O    basis set group =>   4
Atom  22C    basis set group =>   3
Atom  23O    basis set group =>   4
Atom  24C    basis set group =>   3
Atom  25C    basis set group =>   3
Atom  26C    basis set group =>   3
Atom  27C    basis set group =>   3
Atom  28C    basis set group =>   3
Atom  29N    basis set group =>   2
Atom  30C    basis set group =>   3
Atom  31C    basis set group =>   3
Atom  32C    basis set group =>   3
Atom  33C    basis set group =>   3
Atom  34I    basis set group =>   5
Atom  35O    basis set group =>   4
Atom  36I    basis set group =>   5
Atom  37C    basis set group =>   3
---------------------------------
AUXILIARY/J BASIS SET INFORMATION
---------------------------------
There are 5 groups of distinct atoms

 Group   1 Type H   : 5s2p1d contracted to 3s1p1d pattern {311/2/1}
 Group   2 Type N   : 12s5p4d2f1g contracted to 6s4p3d1f1g pattern {711111/2111/211/2/1}
 Group   3 Type C   : 12s5p4d2f1g contracted to 6s4p3d1f1g pattern {711111/2111/211/2/1}
 Group   4 Type O   : 12s5p4d2f1g contracted to 6s4p3d1f1g pattern {711111/2111/211/2/1}
 Group   5 Type I   : 11s5p5d3f1g contracted to 8s4p3d2f1g pattern {41111111/2111/311/21/1}

Atom   0H    basis set group =>   1
Atom   1H    basis set group =>   1
Atom   2H    basis set group =>   1
Atom   3H    basis set group =>   1
Atom   4H    basis set group =>   1
Atom   5H    basis set group =>   1
Atom   6H    basis set group =>   1
Atom   7H    basis set group =>   1
Atom   8H    basis set group =>   1
Atom   9H    basis set group =>   1
Atom  10H    basis set group =>   1
Atom  11H    basis set group =>   1
Atom  12H    basis set group =>   1
Atom  13H    basis set group =>   1
Atom  14H    basis set group =>   1
Atom  15H    basis set group =>   1
Atom  16H    basis set group =>   1
Atom  17H    basis set group =>   1
Atom  18N    basis set group =>   2
Atom  19C    basis set group =>   3
Atom  20C    basis set group =>   3
Atom  21O    basis set group =>   4
Atom  22C    basis set group =>   3
Atom  23O    basis set group =>   4
Atom  24C    basis set group =>   3
Atom  25C    basis set group =>   3
Atom  26C    basis set group =>   3
Atom  27C    basis set group =>   3
Atom  28C    basis set group =>   3
Atom  29N    basis set group =>   2
Atom  30C    basis set group =>   3
Atom  31C    basis set group =>   3
Atom  32C    basis set group =>   3
Atom  33C    basis set group =>   3
Atom  34I    basis set group =>   5
Atom  35O    basis set group =>   4
Atom  36I    basis set group =>   5
Atom  37C    basis set group =>   3
---------------------------------
AUXILIARY/C BASIS SET INFORMATION
---------------------------------
There are 5 groups of distinct atoms

 Group   1 Type H   : 4s3p2d contracted to 4s2p1d pattern {1111/21/2}
 Group   2 Type N   : 8s6p5d3f1g contracted to 8s6p4d3f1g pattern {11111111/111111/2111/111/1}
 Group   3 Type C   : 8s6p5d3f1g contracted to 8s6p4d3f1g pattern {11111111/111111/2111/111/1}
 Group   4 Type O   : 8s6p5d3f1g contracted to 8s6p4d3f1g pattern {11111111/111111/2111/111/1}
 Group   5 Type I   : 9s8p8d6f4g3h contracted to 9s8p8d6f4g3h pattern {111111111/11111111/11111111/111111/1111/111}

Atom   0H    basis set group =>   1
Atom   1H    basis set group =>   1
Atom   2H    basis set group =>   1
Atom   3H    basis set group =>   1
Atom   4H    basis set group =>   1
Atom   5H    basis set group =>   1
Atom   6H    basis set group =>   1
Atom   7H    basis set group =>   1
Atom   8H    basis set group =>   1
Atom   9H    basis set group =>   1
Atom  10H    basis set group =>   1
Atom  11H    basis set group =>   1
Atom  12H    basis set group =>   1
Atom  13H    basis set group =>   1
Atom  14H    basis set group =>   1
Atom  15H    basis set group =>   1
Atom  16H    basis set group =>   1
Atom  17H    basis set group =>   1
Atom  18N    basis set group =>   2
Atom  19C    basis set group =>   3
Atom  20C    basis set group =>   3
Atom  21O    basis set group =>   4
Atom  22C    basis set group =>   3
Atom  23O    basis set group =>   4
Atom  24C    basis set group =>   3
Atom  25C    basis set group =>   3
Atom  26C    basis set group =>   3
Atom  27C    basis set group =>   3
Atom  28C    basis set group =>   3
Atom  29N    basis set group =>   2
Atom  30C    basis set group =>   3
Atom  31C    basis set group =>   3
Atom  32C    basis set group =>   3
Atom  33C    basis set group =>   3
Atom  34I    basis set group =>   5
Atom  35O    basis set group =>   4
Atom  36I    basis set group =>   5
Atom  37C    basis set group =>   3
-------------------------
ECP PARAMETER INFORMATION
-------------------------

 Group 1, Type I  ECP Def2-ECP (replacing 28 core electrons, lmax=3)

Atom  34I    ECP group =>   1
Atom  36I    ECP group =>   1


Checking for AutoStart:
The File: smallComplexOptimized_Fragmented.gbw exists
Trying to determine its content:
     ... Fine, the file contains calculation information
     ... Fine, the calculation information was read
     ... Fine, the file contains a basis set
     ... Fine, the basis set was read
     ... Fine, the file contains ECP parameters
     ... Fine, ECP parameters were read
     ... Fine, the file contains a geometry
     ... Fine, the geometry was read
     ... The file does not contain orbitals - skipping AutoStart
------------------------------------------------------------------------------
                             ORCA STARTUP CALCULATIONS
                           -- RI-GTO INTEGRALS CHOSEN --
------------------------------------------------------------------------------
------------------------------------------------------------------------------
                   ___                                                        
                  /   \      - P O W E R E D   B Y -                         
                 /     \                                                     
                 |  |  |   _    _      __       _____    __    __             
                 |  |  |  | |  | |    /  \     |  _  \  |  |  /  |          
                  \  \/   | |  | |   /    \    | | | |  |  | /  /          
                 / \  \   | |__| |  /  /\  \   | |_| |  |  |/  /          
                |  |  |   |  __  | /  /__\  \  |    /   |      \           
                |  |  |   | |  | | |   __   |  |    \   |  |\   \          
                \     /   | |  | | |  |  |  |  | |\  \  |  | \   \       
                 \___/    |_|  |_| |__|  |__|  |_| \__\ |__|  \__/        
                                                                              
                      - O R C A' S   B I G   F R I E N D -                    
                                      &                                       
                       - I N T E G R A L  F E E D E R -                       
                                                                              
 v1 FN, 2020, v2 2021, v3 2022-2024                                           
------------------------------------------------------------------------------


----------------------
SHARK INTEGRAL PACKAGE
----------------------

Number of atoms                             ...     38
Number of basis functions                   ...    766
Number of shells                            ...    302
Maximum angular momentum                    ...      3
Integral batch strategy                     ... SHARK/LIBINT Hybrid
RI-J (if used) integral strategy            ... SPLIT-RIJ (Revised 2003 algorithm where possible)
Printlevel                                  ...      1
Contraction scheme used                     ... SEGMENTED contraction
Prescreening option                         ... SCHWARTZ
   Thresh                                   ... 2.500e-11
   Tcut                                     ... 2.500e-12
   Tpresel                                  ... 2.500e-12 
Coulomb Range Separation                    ... NOT USED
Exchange Range Separation                   ... NOT USED
Multipole approximations                    ... NOT USED
Finite Nucleus Model                        ... NOT USED
CABS basis                                  ... NOT available
Auxiliary Coulomb fitting basis             ... AVAILABLE
   # of basis functions in Aux-J            ...   1196
   # of shells in Aux-J                     ...    396
   Maximum angular momentum in Aux-J        ...      4
Auxiliary J/K fitting basis                 ... NOT available
Auxiliary Correlation fitting basis         ... AVAILABLE
   # of basis functions in Aux-C            ...   2006
   # of shells in Aux-C                     ...    598
   Maximum angular momentum in Aux-C        ...      5
Auxiliary 'external' fitting basis          ... NOT available

Checking pre-screening integrals            ... done (  0.0 sec) Dimension = 302
Check shell pair data                       ... done (  0.0 sec)
Shell pair information
Shell pair cut-off parameter TPreSel        ...   2.5e-12
Total number of shell pairs                 ...     45753
Shell pairs after pre-screening             ...     32327
Total number of primitive shell pairs       ...    141235
Primitive shell pairs kept                  ...     65243
          la=0 lb=0:   8517 shell pairs
          la=1 lb=0:   9434 shell pairs
          la=1 lb=1:   2658 shell pairs
          la=2 lb=0:   4491 shell pairs
          la=2 lb=1:   2526 shell pairs
          la=2 lb=2:    619 shell pairs
          la=3 lb=0:   2126 shell pairs
          la=3 lb=1:   1235 shell pairs
          la=3 lb=2:    582 shell pairs
          la=3 lb=3:    139 shell pairs

Calculating one electron integrals          ... done (  0.3 sec)
Calculating ECP integrals                   ... done (  1.4 sec)
Calculating RI/J V-Matrix + Cholesky decomp.... done (  0.1 sec)
Calculating RI/C V-Matrix + Cholesky decomp.... done (  0.2 sec)
Calculating Nuclear repulsion               ... done (  0.0 sec) ENN=   2065.712640113326 Eh

Diagonalization of the overlap matrix:
Smallest eigenvalue                        ... 6.038e-06
Time for diagonalization                   ...    0.095 sec
Threshold for overlap eigenvalues          ... 1.000e-07
Number of eigenvalues below threshold      ... 0
Time for construction of square roots      ...    0.056 sec
Total time needed                          ...    0.153 sec

-------------------
DFT GRID GENERATION
-------------------

General Integration Accuracy     IntAcc      ... 4.388
Radial Grid Type                 RadialGrid  ... OptM3 with GC (2021)
Angular Grid (max. ang.)         AngularGrid ... 4 (Lebedev-302)
Angular grid pruning method      GridPruning ... 4 (adaptive)
Weight generation scheme         WeightScheme... mBecke (2022)
Basis function cutoff            BFCut       ... 1.0000e-11
Integration weight cutoff        WCut        ... 1.0000e-14
Partially contracted basis set               ... off
Rotationally invariant grid construction     ... off
Angular grids for H and He will be reduced by one unit

Total number of grid points                  ...   186998
Total number of batches                      ...     2940
Average number of points per batch           ...       63
Average number of grid points per atom       ...     4921

--------------------
COSX GRID GENERATION
--------------------

GRIDX 1
-------
General Integration Accuracy     IntAcc      ... 3.816
Radial Grid Type                 RadialGrid  ... OptM3 with GC (2021)
Angular Grid (max. ang.)         AngularGrid ... 1 (Lebedev-50)
Angular grid pruning method      GridPruning ... 4 (adaptive)
Weight generation scheme         WeightScheme... mBecke (2022)
Basis function cutoff            BFCut       ... 1.0000e-11
Integration weight cutoff        WCut        ... 1.0000e-14
Partially contracted basis set               ... on
Rotationally invariant grid construction     ... off
Angular grids for H and He will be reduced by one unit

Total number of grid points                  ...    32208
Total number of batches                      ...      273
Average number of points per batch           ...      117
Average number of grid points per atom       ...      848
UseSFitting                                  ... on

GRIDX 2
-------
General Integration Accuracy     IntAcc      ... 4.020
Radial Grid Type                 RadialGrid  ... OptM3 with GC (2021)
Angular Grid (max. ang.)         AngularGrid ... 2 (Lebedev-110)
Angular grid pruning method      GridPruning ... 4 (adaptive)
Weight generation scheme         WeightScheme... mBecke (2022)
Basis function cutoff            BFCut       ... 1.0000e-11
Integration weight cutoff        WCut        ... 1.0000e-14
Partially contracted basis set               ... on
Rotationally invariant grid construction     ... off
Angular grids for H and He will be reduced by one unit

Total number of grid points                  ...    56078
Total number of batches                      ...      458
Average number of points per batch           ...      122
Average number of grid points per atom       ...     1476
UseSFitting                                  ... on

GRIDX 3
-------
General Integration Accuracy     IntAcc      ... 4.338
Radial Grid Type                 RadialGrid  ... OptM3 with GC (2021)
Angular Grid (max. ang.)         AngularGrid ... 3 (Lebedev-194)
Angular grid pruning method      GridPruning ... 4 (adaptive)
Weight generation scheme         WeightScheme... mBecke (2022)
Basis function cutoff            BFCut       ... 1.0000e-11
Integration weight cutoff        WCut        ... 1.0000e-14
Partially contracted basis set               ... on
Rotationally invariant grid construction     ... off
Angular grids for H and He will be reduced by one unit

Total number of grid points                  ...   108913
Total number of batches                      ...      871
Average number of points per batch           ...      125
Average number of grid points per atom       ...     2866
UseSFitting                                  ... on
Initializing property integral containers    ... done (  0.0 sec)

SHARK setup successfully completed in  12.8 seconds

Maximum memory used throughout the entire STARTUP-calculation: 147.7 MB
-------------------------------------------------------------------------------
                                 ORCA GUESS
                   Start orbitals & Density for SCF / CASSCF
-------------------------------------------------------------------------------

------------
SCF SETTINGS
------------
Hamiltonian:
 Ab initio Hamiltonian  Method          .... Hartree-Fock(GTOs)
 RI-approximation to the Coulomb term is turned on
   Number of AuxJ basis functions       .... 1196
   RIJ-COSX (HFX calculated with COS-X)).... on


General Settings:
 Integral files         IntName         .... smallComplexOptimized_Fragmented
 Hartree-Fock type      HFTyp           .... RHF
 Total Charge           Charge          ....    0
 Multiplicity           Mult            ....    1
 Number of Electrons    NEL             ....  184
 Basis Dimension        Dim             ....  766
 Nuclear Repulsion      ENuc            ....   2065.7126401133 Eh

Convergence Acceleration:
 AO-DIIS                CNVDIIS         .... on
   Start iteration      DIISMaxIt       ....    12
   Startup error        DIISStart       ....  0.200000
   # of expansion vecs  DIISMaxEq       ....     5
   Bias factor          DIISBfac        ....   1.050
   Max. coefficient     DIISMaxC        ....  10.000
 MO-DIIS                CNVKDIIS        .... off
 Trust-Rad. Augm. Hess. CNVTRAH         .... auto
   Auto Start mean grad. ratio tolernc. ....  1.125000
   Auto Start start iteration           ....    50
   Auto Start num. interpolation iter.  ....    10
   Max. Number of Micro iterations      ....    24
   Max. Number of Macro iterations      .... Maxiter - #DIIS iter
   Number of Davidson start vectors     ....     2
   Converg. threshold    (grad. norm)   ....   1.000e-05
   Grad. Scal. Fac. for Micro threshold ....   0.100
   Minimum threshold for Micro iter.    ....   1.000e-02
   NR start threshold (gradient norm)   ....   1.000e-04
   Initial trust radius                 ....   0.400
   Minimum AH scaling param. (alpha)    ....   1.000
   Maximum AH scaling param. (alpha)    .... 1000.000
   Quad. conv. algorithm                .... NR
   White noise on init. David. guess    .... on
   Maximum white noise                  ....   0.010
   Pseudo random numbers                .... off
   Inactive MOs                         .... canonical
   Orbital update algorithm             .... Taylor
   Preconditioner                       .... Diag
   Full preconditioner red. dimension   ....   250
 SOSCF                  CNVSOSCF        .... on
   Start iteration      SOSCFMaxIt      ....   150
   Startup grad/error   SOSCFStart      ....  0.003300
   Hessian update       SOSCFHessUp     .... L-BFGS
 Level Shifting         CNVShift        .... on
   Level shift para.    LevelShift      ....    0.2500
   Turn off err/grad.   ShiftErr        ....    0.0010
 Zerner damping         CNVZerner       .... off
 Static damping         CNVDamp         .... on
   Fraction old density DampFac         ....    0.7000
   Max. Damping (<1)    DampMax         ....    0.9800
   Min. Damping (>=0)   DampMin         ....    0.0000
   Turn off err/grad.   DampErr         ....    0.1000

SCF Procedure:
 Maximum # iterations   MaxIter         ....   125
 SCF integral mode      SCFMode         .... Direct
   Integral package                     .... SHARK and LIBINT hybrid scheme
 Reset frequency        DirectResetFreq ....    20
 Integral Threshold     Thresh          ....  2.500e-11 Eh
 Primitive CutOff       TCut            ....  2.500e-12 Eh

Convergence Tolerance:
 Convergence Check Mode ConvCheckMode   .... Total+1el-Energy
 Convergence forced     ConvForced      .... 1
 Energy Change          TolE            ....  1.000e-08 Eh
 1-El. energy change                    ....  1.000e-05 Eh
 Orbital Gradient       TolG            ....  1.000e-05
 Orbital Rotation angle TolX            ....  1.000e-05
 DIIS Error             TolErr          ....  5.000e-07

------------------------------
INITIAL GUESS: MODEL POTENTIAL
------------------------------
Loading Hartree-Fock densities                     ... done
Atomic calculation to generate a density for atom 34 (I  with ECP)
  Multiplicity assumed   :    2
  Atomic configuration   : 1s2 2s2 2p6 3s2 3p6 4s2 3d10 4p6 5s2 4d10 5p5 
  Number of open shells  : 1
  Command: C:\ORCA_6.0.0\orca smallComplexOptimized_Fragmented_atom53.inp "" > smallComplexOptimized_Fragmented_atom53.out
Returned from the atomic calculation with res=0
Calculating cut-offs                               ... done
Initializing the effective Hamiltonian             ... done
Setting up the integral package (SHARK)            ... done
Starting the Coulomb interaction                   ... done (   3.3 sec)
Making the grid                                    ... done (   1.0 sec)
Mapping shells                                     ... done
Starting the XC term evaluation                    ... done (   1.4 sec)
Transforming the Hamiltonian                       ... done (   0.0 sec)
Diagonalizing the Hamiltonian                      ... done (   0.1 sec)
Back transforming the eigenvectors                 ... done (   0.0 sec)
Now organizing SCF variables                       ... done
                      ------------------
                      INITIAL GUESS DONE (  10.5 sec)
                      ------------------
             **** ENERGY FILE WAS UPDATED (smallComplexOptimized_Fragmented.en.tmp) ****
Finished Guess after  10.8 sec
Maximum memory used throughout the entire GUESS-calculation: 112.8 MB

-------------------------------------------------------------------------------------------
                                      ORCA LEAN-SCF
                              memory conserving SCF solver
-------------------------------------------------------------------------------------------

----------------------------------------D-I-I-S--------------------------------------------
Iteration    Energy (Eh)           Delta-E    RMSDP     MaxDP     DIISErr   Damp  Time(sec)
-------------------------------------------------------------------------------------------
               ***  Starting incremental Fock matrix formation  ***
    1    -1428.5486539852854548     0.00e+00  1.56e-03  1.30e-01  5.70e-01  0.700  93.5
    2    -1428.9364579631769629    -3.88e-01  1.18e-03  9.39e-02  3.95e-01  0.700  47.4
    3    -1429.1574004037333907    -2.21e-01  7.62e-04  6.45e-02  2.74e-01  0.700  46.5
                               ***Turning on AO-DIIS***
    4    -1429.2962387875568311    -1.39e-01  5.07e-04  4.41e-02  1.90e-01  0.700  45.1
    5    -1429.3922055237617315    -9.60e-02  3.85e-04  3.48e-02  1.33e-01  0.700  43.9
    6    -1429.4602582979800900    -6.81e-02  2.91e-04  2.64e-02  9.39e-02  0.700  43.3
    7    -1429.5088338781629318    -4.86e-02  7.31e-04  6.60e-02  6.60e-02  0.000  42.5
    8    -1429.6261470942349661    -1.17e-01  8.15e-05  5.27e-03  5.95e-03  0.000  45.6
                              *** Initializing SOSCF ***
---------------------------------------S-O-S-C-F--------------------------------------
Iteration    Energy (Eh)           Delta-E    RMSDP     MaxDP     MaxGrad    Time(sec)
--------------------------------------------------------------------------------------
    9    -1429.6266504715240444    -5.03e-04  5.41e-05  4.31e-03  2.60e-03    38.5
               *** Restarting incremental Fock matrix formation ***
   10    -1429.6269811960391962    -3.31e-04  8.13e-05  5.21e-03  1.71e-03    92.4
   11    -1429.6271767523735434    -1.96e-04  1.67e-04  1.65e-02  1.72e-03    69.2
   12    -1429.6273696202424617    -1.93e-04  7.47e-05  4.62e-03  1.02e-03    71.9
   13    -1429.6274062640027296    -3.66e-05  1.64e-05  1.18e-03  4.41e-04    68.4
   14    -1429.6274133168458320    -7.05e-06  8.53e-06  4.69e-04  2.66e-04    59.2
   15    -1429.6274161112660295    -2.79e-06  4.66e-06  3.77e-04  1.35e-04    55.7
   16    -1429.6274166306398001    -5.19e-07  2.27e-06  1.37e-04  6.14e-05    48.2
   17    -1429.6274168345735234    -2.04e-07  1.53e-06  7.42e-05  2.79e-05    45.9
   18    -1429.6274169148246074    -8.03e-08  5.43e-07  2.54e-05  1.20e-05    44.0
   19    -1429.6274169396424440    -2.48e-08  5.55e-07  3.44e-05  5.60e-06    35.3
   20    -1429.6274169474295377    -7.79e-09  2.41e-07  1.57e-05  2.85e-06    35.1
                 **** Energy Check signals convergence ****

               *****************************************************
               *                     SUCCESS                       *
               *           SCF CONVERGED AFTER  20 CYCLES          *
               *****************************************************

Recomputing exchange energy using gridx3       ... done (  164.374 sec)
Old exchange energy                            :   -154.015564946 Eh
New exchange energy                            :   -154.015733663 Eh
Exchange energy change after final integration :     -0.000168717 Eh
Total energy after final integration           :  -1429.627585664 Eh
             **** ENERGY FILE WAS UPDATED (smallComplexOptimized_Fragmented.en.tmp) ****

----------------
TOTAL SCF ENERGY
----------------

Total Energy       :      -1429.62758566438356 Eh          -38902.14435 eV

Components:
Nuclear Repulsion  :       2065.71264011332642 Eh           56210.89864 eV
Electronic Energy  :      -3495.34005706075595 Eh          -95113.03841 eV
One Electron Energy:      -6288.44521978983539 Eh         -171117.29387 eV
Two Electron Energy:       2793.10516272907944 Eh           76004.25546 eV

Virial components:
Potential Energy   :      -2491.85310698628291 Eh          -67806.77027 eV
Kinetic Energy     :       1062.22552132189958 Eh           28904.62592 eV
Virial Ratio       :          2.34587953025763

---------------
SCF CONVERGENCE
---------------

  Last Energy change         ...    7.7871e-09  Tolerance :   1.0000e-08
  Last MAX-Density change    ...    1.5709e-05  Tolerance :   1.0000e-07
  Last RMS-Density change    ...    2.4112e-07  Tolerance :   5.0000e-09
  Last DIIS Error            ...    2.6015e-03  Tolerance :   5.0000e-07
  Last Orbital Gradient      ...    2.8531e-06  Tolerance :   1.0000e-05
  Last Orbital Rotation      ...    1.2800e-05  Tolerance :   1.0000e-05


----------------
ORBITAL ENERGIES
----------------

  NO   OCC          E(Eh)            E(eV) 
   0   2.0000     -20.670946      -562.4850 
   1   2.0000     -20.583242      -560.0985 
   2   2.0000     -20.580704      -560.0294 
   3   2.0000     -15.568969      -423.6532 
   4   2.0000     -15.535352      -422.7384 
   5   2.0000     -11.433481      -311.1208 
   6   2.0000     -11.324649      -308.1594 
   7   2.0000     -11.323392      -308.1252 
   8   2.0000     -11.322976      -308.1138 
   9   2.0000     -11.296958      -307.4058 
  10   2.0000     -11.294031      -307.3262 
  11   2.0000     -11.271126      -306.7029 
  12   2.0000     -11.262728      -306.4744 
  13   2.0000     -11.257147      -306.3225 
  14   2.0000     -11.255064      -306.2659 
  15   2.0000     -11.235420      -305.7313 
  16   2.0000     -11.235067      -305.7217 
  17   2.0000     -11.232669      -305.6565 
  18   2.0000      -7.752412      -210.9539 
  19   2.0000      -7.742990      -210.6975 
  20   2.0000      -5.607559      -152.5894 
  21   2.0000      -5.598271      -152.3367 
  22   2.0000      -5.597151      -152.3062 
  23   2.0000      -5.597023      -152.3027 
  24   2.0000      -5.587760      -152.0507 
  25   2.0000      -5.587498      -152.0435 
  26   2.0000      -2.303100       -62.6705 
  27   2.0000      -2.298738       -62.5518 
  28   2.0000      -2.298563       -62.5471 
  29   2.0000      -2.293891       -62.4200 
  30   2.0000      -2.289410       -62.2980 
  31   2.0000      -2.289198       -62.2923 
  32   2.0000      -2.287382       -62.2428 
  33   2.0000      -2.287337       -62.2416 
  34   2.0000      -2.277875       -61.9841 
  35   2.0000      -2.277865       -61.9839 
  36   2.0000      -1.471191       -40.0331 
  37   2.0000      -1.402910       -38.1751 
  38   2.0000      -1.379238       -37.5310 
  39   2.0000      -1.209475       -32.9115 
  40   2.0000      -1.176857       -32.0239 
  41   2.0000      -1.172619       -31.9086 
  42   2.0000      -1.061687       -28.8900 
  43   2.0000      -1.052079       -28.6285 
  44   2.0000      -1.042155       -28.3585 
  45   2.0000      -0.949742       -25.8438 
  46   2.0000      -0.947976       -25.7957 
  47   2.0000      -0.942175       -25.6379 
  48   2.0000      -0.922557       -25.1041 
  49   2.0000      -0.906666       -24.6716 
  50   2.0000      -0.860531       -23.4162 
  51   2.0000      -0.836192       -22.7539 
  52   2.0000      -0.815861       -22.2007 
  53   2.0000      -0.792428       -21.5631 
  54   2.0000      -0.779662       -21.2157 
  55   2.0000      -0.745089       -20.2749 
  56   2.0000      -0.728323       -19.8187 
  57   2.0000      -0.696347       -18.9486 
  58   2.0000      -0.690965       -18.8021 
  59   2.0000      -0.654966       -17.8225 
  60   2.0000      -0.639360       -17.3979 
  61   2.0000      -0.637724       -17.3534 
  62   2.0000      -0.632811       -17.2197 
  63   2.0000      -0.630063       -17.1449 
  64   2.0000      -0.614533       -16.7223 
  65   2.0000      -0.608382       -16.5549 
  66   2.0000      -0.594975       -16.1901 
  67   2.0000      -0.592352       -16.1187 
  68   2.0000      -0.585773       -15.9397 
  69   2.0000      -0.566158       -15.4059 
  70   2.0000      -0.564558       -15.3624 
  71   2.0000      -0.556523       -15.1438 
  72   2.0000      -0.555824       -15.1247 
  73   2.0000      -0.548474       -14.9247 
  74   2.0000      -0.545081       -14.8324 
  75   2.0000      -0.532575       -14.4921 
  76   2.0000      -0.526150       -14.3173 
  77   2.0000      -0.515192       -14.0191 
  78   2.0000      -0.507876       -13.8200 
  79   2.0000      -0.498165       -13.5557 
  80   2.0000      -0.478014       -13.0074 
  81   2.0000      -0.476312       -12.9611 
  82   2.0000      -0.464979       -12.6527 
  83   2.0000      -0.431829       -11.7507 
  84   2.0000      -0.424522       -11.5518 
  85   2.0000      -0.391703       -10.6588 
  86   2.0000      -0.387491       -10.5442 
  87   2.0000      -0.379893       -10.3374 
  88   2.0000      -0.344865        -9.3842 
  89   2.0000      -0.339212        -9.2304 
  90   2.0000      -0.335277        -9.1234 
  91   2.0000      -0.315166        -8.5761 
  92   0.0000      -0.035055        -0.9539 
  93   0.0000       0.074538         2.0283 
  94   0.0000       0.076142         2.0719 
  95   0.0000       0.090752         2.4695 
  96   0.0000       0.107543         2.9264 
  97   0.0000       0.111512         3.0344 
  98   0.0000       0.132570         3.6074 
  99   0.0000       0.142839         3.8868 
 100   0.0000       0.150986         4.1085 
 101   0.0000       0.156816         4.2672 
 102   0.0000       0.164210         4.4684 
*Only the first 10 virtual orbitals were printed.

                    ********************************
                    * MULLIKEN POPULATION ANALYSIS *
                    ********************************

-------------------------
MULLIKEN FRAGMENT CHARGES
-------------------------
 Fragment   0 :  -0.002724
 Fragment   1 :   0.002724
Sum of fragment charges:   -0.0000000

---------------------------------
MULLIKEN FRAGMENT OVERLAP CHARGES
---------------------------------
                  0          1    
      0     143.397496  -0.052761
      1      -0.052761  61.786181

-----------------------
MULLIKEN ATOMIC CHARGES
-----------------------
   0 H :    0.112365
   1 H :    0.088107
   2 H :    0.129509
   3 H :    0.128137
   4 H :    0.086722
   5 H :    0.208460
   6 H :    0.344424
   7 H :    0.138096
   8 H :    0.166997
   9 H :    0.176109
  10 H :    0.114456
  11 H :    0.054181
  12 H :    0.113390
  13 H :    0.105026
  14 H :    0.107134
  15 H :    0.106740
  16 H :    0.080919
  17 H :    0.340930
  18 N :   -0.557239
  19 C :    0.175822
  20 C :    0.291970
  21 O :   -0.280930
  22 C :    0.141122
  23 O :   -0.536239
  24 C :   -0.329507
  25 C :    0.105349
  26 C :    0.106177
  27 C :    0.124481
  28 C :   -0.122181
  29 N :   -0.171122
  30 C :   -0.344054
  31 C :   -0.380971
  32 C :   -0.212374
  33 C :    0.175660
  34 I :   -0.069856
  35 O :   -0.448168
  36 I :   -0.039169
  37 C :   -0.230475
Sum of atomic charges:   -0.0000000

--------------------------------
MULLIKEN REDUCED ORBITAL CHARGES
--------------------------------
  0 H s       :     0.864056  s :     0.864056
      pz      :     0.014953  p :     0.023579
      px      :     0.004008
      py      :     0.004617

  1 H s       :     0.890034  s :     0.890034
      pz      :     0.013959  p :     0.021859
      px      :     0.003442
      py      :     0.004458

  2 H s       :     0.847973  s :     0.847973
      pz      :     0.005716  p :     0.022519
      px      :     0.013153
      py      :     0.003649

  3 H s       :     0.849421  s :     0.849421
      pz      :     0.007610  p :     0.022442
      px      :     0.006876
      py      :     0.007956

  4 H s       :     0.890256  s :     0.890256
      pz      :     0.012467  p :     0.023022
      px      :     0.004041
      py      :     0.006514

  5 H s       :     0.756600  s :     0.756600
      pz      :     0.017287  p :     0.034939
      px      :     0.009181
      py      :     0.008471

  6 H s       :     0.610979  s :     0.610979
      pz      :     0.014381  p :     0.044597
      px      :     0.012291
      py      :     0.017925

  7 H s       :     0.839266  s :     0.839266
      pz      :     0.016094  p :     0.022638
      px      :     0.003511
      py      :     0.003033

  8 H s       :     0.808978  s :     0.808978
      pz      :     0.004940  p :     0.024025
      px      :     0.005037
      py      :     0.014048

  9 H s       :     0.799752  s :     0.799752
      pz      :     0.015569  p :     0.024139
      px      :     0.005075
      py      :     0.003495

 10 H s       :     0.863666  s :     0.863666
      pz      :     0.003647  p :     0.021877
      px      :     0.006757
      py      :     0.011473

 11 H s       :     0.924338  s :     0.924338
      pz      :     0.013573  p :     0.021481
      px      :     0.003148
      py      :     0.004759

 12 H s       :     0.864851  s :     0.864851
      pz      :     0.007207  p :     0.021759
      px      :     0.005655
      py      :     0.008897

 13 H s       :     0.873297  s :     0.873297
      pz      :     0.005872  p :     0.021677
      px      :     0.012568
      py      :     0.003237

 14 H s       :     0.871138  s :     0.871138
      pz      :     0.006527  p :     0.021728
      px      :     0.005528
      py      :     0.009673

 15 H s       :     0.870794  s :     0.870794
      pz      :     0.003882  p :     0.022466
      px      :     0.015122
      py      :     0.003462

 16 H s       :     0.898180  s :     0.898180
      pz      :     0.013000  p :     0.020901
      px      :     0.003582
      py      :     0.004319

 17 H s       :     0.610946  s :     0.610946
      pz      :     0.022302  p :     0.048124
      px      :     0.015171
      py      :     0.010652

 18 N s       :     3.774266  s :     3.774266
      pz      :     1.354354  p :     3.732338
      px      :     1.434440
      py      :     0.943543
      dz2     :     0.015303  d :     0.048209
      dxz     :     0.002903
      dyz     :     0.011999
      dx2y2   :     0.009662
      dxy     :     0.008342
      f0      :     0.000292  f :     0.002426
      f+1     :     0.000046
      f-1     :     0.000587
      f+2     :     0.000245
      f-2     :     0.000160
      f+3     :     0.000568
      f-3     :     0.000527

 19 C s       :     3.004307  s :     3.004307
      pz      :     0.988936  p :     2.627948
      px      :     0.895673
      py      :     0.743340
      dz2     :     0.024625  d :     0.181711
      dxz     :     0.024802
      dyz     :     0.042129
      dx2y2   :     0.046231
      dxy     :     0.043924
      f0      :     0.001293  f :     0.010211
      f+1     :     0.001188
      f-1     :     0.001137
      f+2     :     0.001305
      f-2     :     0.001732
      f+3     :     0.001479
      f-3     :     0.002078

 20 C s       :     3.506214  s :     3.506214
      pz      :     0.753733  p :     2.042080
      px      :     0.637567
      py      :     0.650779
      dz2     :     0.039973  d :     0.143920
      dxz     :     0.028379
      dyz     :     0.041211
      dx2y2   :     0.017813
      dxy     :     0.016544
      f0      :     0.004034  f :     0.015816
      f+1     :     0.002503
      f-1     :     0.002835
      f+2     :     0.002553
      f-2     :     0.002373
      f+3     :     0.000660
      f-3     :     0.000857

 21 O s       :     3.859561  s :     3.859561
      pz      :     1.378259  p :     4.381658
      px      :     1.449231
      py      :     1.554168
      dz2     :     0.012890  d :     0.037613
      dxz     :     0.010473
      dyz     :     0.008767
      dx2y2   :     0.002843
      dxy     :     0.002640
      f0      :     0.000583  f :     0.002098
      f+1     :     0.000490
      f-1     :     0.000401
      f+2     :     0.000281
      f-2     :     0.000270
      f+3     :     0.000037
      f-3     :     0.000036

 22 C s       :     3.118894  s :     3.118894
      pz      :     0.874981  p :     2.540161
      px      :     0.795885
      py      :     0.869295
      dz2     :     0.037646  d :     0.186317
      dxz     :     0.035890
      dyz     :     0.030854
      dx2y2   :     0.044798
      dxy     :     0.037130
      f0      :     0.001145  f :     0.013506
      f+1     :     0.001977
      f-1     :     0.001831
      f+2     :     0.001802
      f-2     :     0.002182
      f+3     :     0.002291
      f-3     :     0.002278

 23 O s       :     3.796492  s :     3.796492
      pz      :     1.777751  p :     4.706182
      px      :     1.550830
      py      :     1.377601
      dz2     :     0.004031  d :     0.031826
      dxz     :     0.006309
      dyz     :     0.002550
      dx2y2   :     0.004331
      dxy     :     0.014605
      f0      :     0.000337  f :     0.001739
      f+1     :     0.000141
      f-1     :     0.000230
      f+2     :     0.000167
      f-2     :     0.000403
      f+3     :     0.000365
      f-3     :     0.000096

 24 C s       :     3.206519  s :     3.206519
      pz      :     1.055285  p :     3.050436
      px      :     1.059213
      py      :     0.935937
      dz2     :     0.009100  d :     0.068054
      dxz     :     0.012097
      dyz     :     0.018665
      dx2y2   :     0.014588
      dxy     :     0.013605
      f0      :     0.000689  f :     0.004498
      f+1     :     0.000087
      f-1     :     0.000855
      f+2     :     0.000558
      f-2     :     0.000718
      f+3     :     0.000996
      f-3     :     0.000595

 25 C s       :     3.221448  s :     3.221448
      pz      :     0.764773  p :     2.521716
      px      :     0.967453
      py      :     0.789489
      dz2     :     0.037319  d :     0.140547
      dxz     :     0.020646
      dyz     :     0.040567
      dx2y2   :     0.019563
      dxy     :     0.022451
      f0      :     0.001839  f :     0.010941
      f+1     :     0.001404
      f-1     :     0.002450
      f+2     :     0.001458
      f-2     :     0.001216
      f+3     :     0.001264
      f-3     :     0.001309

 26 C s       :     3.003781  s :     3.003781
      pz      :     0.946390  p :     2.641948
      px      :     0.857709
      py      :     0.837849
      dz2     :     0.065702  d :     0.230830
      dxz     :     0.036084
      dyz     :     0.056577
      dx2y2   :     0.027701
      dxy     :     0.044767
      f0      :     0.002163  f :     0.017264
      f+1     :     0.001270
      f-1     :     0.004163
      f+2     :     0.002548
      f-2     :     0.003003
      f+3     :     0.002281
      f-3     :     0.001836

 27 C s       :     3.194780  s :     3.194780
      pz      :     0.736348  p :     2.531216
      px      :     1.025433
      py      :     0.769435
      dz2     :     0.038934  d :     0.140262
      dxz     :     0.017535
      dyz     :     0.039478
      dx2y2   :     0.019692
      dxy     :     0.024623
      f0      :     0.001186  f :     0.009261
      f+1     :     0.000694
      f-1     :     0.001866
      f+2     :     0.001401
      f-2     :     0.001186
      f+3     :     0.001522
      f-3     :     0.001406

 28 C s       :     3.216617  s :     3.216617
      pz      :     0.995632  p :     2.763362
      px      :     0.979600
      py      :     0.788130
      dz2     :     0.044648  d :     0.133198
      dxz     :     0.009189
      dyz     :     0.022633
      dx2y2   :     0.032962
      dxy     :     0.023766
      f0      :     0.001571  f :     0.009003
      f+1     :     0.000688
      f-1     :     0.001573
      f+2     :     0.000910
      f-2     :     0.001266
      f+3     :     0.001839
      f-3     :     0.001157

 29 N s       :     3.436184  s :     3.436184
      pz      :     1.599423  p :     3.646905
      px      :     1.012881
      py      :     1.034600
      dz2     :     0.007007  d :     0.083533
      dxz     :     0.015567
      dyz     :     0.014485
      dx2y2   :     0.021467
      dxy     :     0.025006
      f0      :     0.000702  f :     0.004501
      f+1     :     0.000571
      f-1     :     0.000656
      f+2     :     0.000512
      f-2     :     0.000513
      f+3     :     0.000730
      f-3     :     0.000818

 30 C s       :     3.225093  s :     3.225093
      pz      :     1.008546  p :     2.983018
      px      :     0.958410
      py      :     1.016063
      dz2     :     0.035200  d :     0.126701
      dxz     :     0.024884
      dyz     :     0.038410
      dx2y2   :     0.012309
      dxy     :     0.015898
      f0      :     0.001779  f :     0.009241
      f+1     :     0.001307
      f-1     :     0.001787
      f+2     :     0.001349
      f-2     :     0.001172
      f+3     :     0.001136
      f-3     :     0.000712

 31 C s       :     3.235571  s :     3.235571
      pz      :     1.061945  p :     3.017589
      px      :     0.952935
      py      :     1.002710
      dz2     :     0.032820  d :     0.118844
      dxz     :     0.009907
      dyz     :     0.029512
      dx2y2   :     0.019538
      dxy     :     0.027067
      f0      :     0.001129  f :     0.008967
      f+1     :     0.000633
      f-1     :     0.001620
      f+2     :     0.001310
      f-2     :     0.001242
      f+3     :     0.001535
      f-3     :     0.001498

 32 C s       :     3.202426  s :     3.202426
      pz      :     0.996275  p :     2.902650
      px      :     0.833440
      py      :     1.072935
      dz2     :     0.026117  d :     0.100416
      dxz     :     0.022500
      dyz     :     0.012563
      dx2y2   :     0.016644
      dxy     :     0.022592
      f0      :     0.001048  f :     0.006882
      f+1     :     0.001215
      f-1     :     0.000694
      f+2     :     0.001021
      f-2     :     0.000468
      f+3     :     0.001692
      f-3     :     0.000744

 33 C s       :     3.101016  s :     3.101016
      pz      :     0.795780  p :     2.566528
      px      :     0.997946
      py      :     0.772802
      dz2     :     0.033607  d :     0.147447
      dxz     :     0.021462
      dyz     :     0.051484
      dx2y2   :     0.020642
      dxy     :     0.020252
      f0      :     0.001643  f :     0.009349
      f+1     :     0.001294
      f-1     :     0.001911
      f+2     :     0.001360
      f-2     :     0.000768
      f+3     :     0.001140
      f-3     :     0.001233

 34 I s       :     3.933280  s :     3.933280
      pz      :     3.160297  p :    11.059147
      px      :     3.918125
      py      :     3.980725
      dz2     :     2.032337  d :    10.064854
      dxz     :     2.019493
      dyz     :     2.008300
      dx2y2   :     2.002853
      dxy     :     2.001871
      f0      :     0.005497  f :     0.012576
      f+1     :     0.004078
      f-1     :     0.001713
      f+2     :     0.000678
      f-2     :     0.000405
      f+3     :     0.000116
      f-3     :     0.000089

 35 O s       :     3.765712  s :     3.765712
      pz      :     1.282161  p :     4.644337
      px      :     1.842535
      py      :     1.519641
      dz2     :     0.008385  d :     0.036137
      dxz     :     0.002294
      dyz     :     0.013184
      dx2y2   :     0.007426
      dxy     :     0.004847
      f0      :     0.000528  f :     0.001982
      f+1     :     0.000226
      f-1     :     0.000382
      f+2     :     0.000379
      f-2     :     0.000142
      f+3     :     0.000134
      f-3     :     0.000190

 36 I s       :     3.919997  s :     3.919997
      pz      :     3.625752  p :    11.043026
      px      :     3.974758
      py      :     3.442516
      dz2     :     2.006457  d :    10.063381
      dxz     :     2.007573
      dyz     :     2.026609
      dx2y2   :     2.011700
      dxy     :     2.011042
      f0      :     0.001260  f :     0.012765
      f+1     :     0.000247
      f-1     :     0.002850
      f+2     :     0.004024
      f-2     :     0.001879
      f+3     :     0.001192
      f-3     :     0.001311

 37 C s       :     3.218896  s :     3.218896
      pz      :     1.033747  p :     2.900052
      px      :     0.986575
      py      :     0.879730
      dz2     :     0.016466  d :     0.104459
      dxz     :     0.016237
      dyz     :     0.031667
      dx2y2   :     0.020297
      dxy     :     0.019792
      f0      :     0.001622  f :     0.007068
      f+1     :     0.000289
      f-1     :     0.000759
      f+2     :     0.000379
      f-2     :     0.001429
      f+3     :     0.001629
      f-3     :     0.000960



                     *******************************
                     * LOEWDIN POPULATION ANALYSIS *
                     *******************************

------------------------
LOEWDIN FRAGMENT CHARGES
------------------------
 Fragment   0 :  -0.001909
 Fragment   1 :   0.001909

----------------------------
LOEWDIN FRAGMENT BOND ORDERS
----------------------------
                  0          1    
      0     197.528511   0.182843
      1       0.182843  90.761469

----------------------
LOEWDIN ATOMIC CHARGES
----------------------
   0 H :    0.154535
   1 H :    0.133423
   2 H :    0.123129
   3 H :    0.119679
   4 H :    0.110234
   5 H :    0.139943
   6 H :    0.180692
   7 H :    0.128881
   8 H :    0.146100
   9 H :    0.147622
  10 H :    0.110482
  11 H :    0.085888
  12 H :    0.106937
  13 H :    0.104147
  14 H :    0.105976
  15 H :    0.135210
  16 H :    0.090080
  17 H :    0.166923
  18 N :   -0.178691
  19 C :   -0.345978
  20 C :    0.026225
  21 O :    0.142374
  22 C :   -0.300830
  23 O :   -0.049759
  24 C :   -0.253069
  25 C :   -0.104931
  26 C :   -0.218787
  27 C :   -0.353319
  28 C :   -0.209310
  29 N :    0.024545
  30 C :   -0.155475
  31 C :   -0.111998
  32 C :   -0.282580
  33 C :   -0.395417
  34 I :    0.362036
  35 O :    0.055119
  36 I :    0.352781
  37 C :   -0.292818

-------------------------------
LOEWDIN REDUCED ORBITAL CHARGES
-------------------------------
  0 H s       :     0.789033  s :     0.789033
      pz      :     0.033527  p :     0.056432
      px      :     0.011004
      py      :     0.011901

  1 H s       :     0.810747  s :     0.810747
      pz      :     0.032432  p :     0.055829
      px      :     0.010567
      py      :     0.012830

  2 H s       :     0.814795  s :     0.814795
      pz      :     0.017069  p :     0.062076
      px      :     0.032732
      py      :     0.012275

  3 H s       :     0.818568  s :     0.818568
      pz      :     0.021156  p :     0.061753
      px      :     0.020445
      py      :     0.020152

  4 H s       :     0.825856  s :     0.825856
      pz      :     0.033127  p :     0.063910
      px      :     0.013199
      py      :     0.017584

  5 H s       :     0.751459  s :     0.751459
      pz      :     0.057882  p :     0.108598
      px      :     0.028698
      py      :     0.022018

  6 H s       :     0.663387  s :     0.663387
      pz      :     0.042794  p :     0.155921
      px      :     0.048184
      py      :     0.064943

  7 H s       :     0.810022  s :     0.810022
      pz      :     0.039375  p :     0.061097
      px      :     0.012039
      py      :     0.009683

  8 H s       :     0.793207  s :     0.793207
      pz      :     0.012999  p :     0.060693
      px      :     0.014815
      py      :     0.032879

  9 H s       :     0.791204  s :     0.791204
      pz      :     0.036201  p :     0.061174
      px      :     0.014931
      py      :     0.010042

 10 H s       :     0.828982  s :     0.828982
      pz      :     0.012225  p :     0.060536
      px      :     0.017269
      py      :     0.031042

 11 H s       :     0.854203  s :     0.854203
      pz      :     0.034635  p :     0.059909
      px      :     0.010178
      py      :     0.015096

 12 H s       :     0.833330  s :     0.833330
      pz      :     0.020648  p :     0.059733
      px      :     0.014874
      py      :     0.024212

 13 H s       :     0.836187  s :     0.836187
      pz      :     0.017402  p :     0.059666
      px      :     0.031477
      py      :     0.010787

 14 H s       :     0.834384  s :     0.834384
      pz      :     0.018816  p :     0.059640
      px      :     0.016991
      py      :     0.023833

 15 H s       :     0.806850  s :     0.806850
      pz      :     0.013245  p :     0.057940
      px      :     0.034440
      py      :     0.010255

 16 H s       :     0.849868  s :     0.849868
      pz      :     0.034435  p :     0.060053
      px      :     0.012347
      py      :     0.013271

 17 H s       :     0.671648  s :     0.671648
      pz      :     0.080152  p :     0.161430
      px      :     0.043895
      py      :     0.037384

 18 N s       :     3.289233  s :     3.289233
      pz      :     1.373204  p :     3.769634
      px      :     1.346536
      py      :     1.049893
      dz2     :     0.027014  d :     0.111404
      dxz     :     0.005550
      dyz     :     0.035656
      dx2y2   :     0.022398
      dxy     :     0.020786
      f0      :     0.001663  f :     0.008421
      f+1     :     0.000243
      f-1     :     0.002134
      f+2     :     0.000653
      f-2     :     0.000762
      f+3     :     0.001600
      f-3     :     0.001365

 19 C s       :     2.772202  s :     2.772202
      pz      :     1.009919  p :     2.853424
      px      :     0.945884
      py      :     0.897621
      dz2     :     0.101945  d :     0.657358
      dxz     :     0.092787
      dyz     :     0.140738
      dx2y2   :     0.149480
      dxy     :     0.172408
      f0      :     0.007085  f :     0.062995
      f+1     :     0.006427
      f-1     :     0.007778
      f+2     :     0.007724
      f-2     :     0.010242
      f+3     :     0.009888
      f-3     :     0.013850

 20 C s       :     3.035916  s :     3.035916
      pz      :     0.917991  p :     2.336121
      px      :     0.687588
      py      :     0.730542
      dz2     :     0.143403  d :     0.507326
      dxz     :     0.111613
      dyz     :     0.137284
      dx2y2   :     0.050316
      dxy     :     0.064710
      f0      :     0.021990  f :     0.094412
      f+1     :     0.017457
      f-1     :     0.019922
      f+2     :     0.012895
      f-2     :     0.012546
      f+3     :     0.004750
      f-3     :     0.004851

 21 O s       :     3.444997  s :     3.444997
      pz      :     1.484597  p :     4.348972
      px      :     1.388175
      py      :     1.476200
      dz2     :     0.020087  d :     0.059455
      dxz     :     0.017339
      dyz     :     0.015378
      dx2y2   :     0.002943
      dxy     :     0.003708
      f0      :     0.000843  f :     0.004202
      f+1     :     0.001334
      f-1     :     0.000907
      f+2     :     0.000425
      f-2     :     0.000586
      f+3     :     0.000054
      f-3     :     0.000052

 22 C s       :     2.752286  s :     2.752286
[...]
   IBatch 247 (of 434)              ... done (    9.825 sec)
   IBatch 248 (of 434)              ... done (    3.282 sec)
   IBatch 249 (of 434)              ... done (    4.781 sec)
   IBatch 250 (of 434)              ... done (    9.972 sec)
   IBatch 251 (of 434)              ... done (    9.202 sec)
   IBatch 252 (of 434)              ... done (   13.310 sec)
   IBatch 253 (of 434)              ... done (    6.061 sec)
   IBatch 254 (of 434)              ... done (    4.212 sec)
   IBatch 255 (of 434)              ... done (    9.150 sec)
   IBatch 256 (of 434)              ... done (   10.057 sec)
   IBatch 257 (of 434)              ... done (    4.661 sec)
   IBatch 258 (of 434)              ... done (   12.152 sec)
   IBatch 259 (of 434)              ... done (    4.511 sec)
   IBatch 260 (of 434)              ... done (    5.071 sec)
   IBatch 261 (of 434)              ... done (    6.855 sec)
   IBatch 262 (of 434)              ... done (    9.032 sec)
   IBatch 263 (of 434)              ... done (   14.214 sec)
   IBatch 264 (of 434)              ... done (    3.577 sec)
   IBatch 265 (of 434)              ... done (    3.133 sec)
   IBatch 266 (of 434)              ... done (    5.585 sec)
   IBatch 267 (of 434)              ... done (   13.547 sec)
   IBatch 268 (of 434)              ... done (   13.311 sec)
   IBatch 269 (of 434)              ... done (    7.211 sec)
   IBatch 270 (of 434)              ... done (   11.256 sec)
   IBatch 271 (of 434)              ... done (   10.405 sec)
   IBatch 272 (of 434)              ... done (    5.620 sec)
   IBatch 273 (of 434)              ... done (    5.337 sec)
   IBatch 274 (of 434)              ... done (   12.130 sec)
   IBatch 275 (of 434)              ... done (    5.528 sec)
   IBatch 276 (of 434)              ... done (    5.556 sec)
   IBatch 277 (of 434)              ... done (    3.792 sec)
   IBatch 278 (of 434)              ... done (    2.792 sec)
   IBatch 279 (of 434)              ... done (   10.038 sec)
   IBatch 280 (of 434)              ... done (    6.149 sec)
   IBatch 281 (of 434)              ... done (    3.913 sec)
   IBatch 282 (of 434)              ... done (    3.945 sec)
   IBatch 283 (of 434)              ... done (    7.233 sec)
   IBatch 284 (of 434)              ... done (    5.363 sec)
   IBatch 285 (of 434)              ... done (    3.173 sec)
   IBatch 286 (of 434)              ... done (    3.769 sec)
   IBatch 287 (of 434)              ... done (    3.748 sec)
   IBatch 288 (of 434)              ... done (   13.429 sec)
   IBatch 289 (of 434)              ... done (    3.127 sec)
   IBatch 290 (of 434)              ... done (    5.211 sec)
   IBatch 291 (of 434)              ... done (    6.182 sec)
   IBatch 292 (of 434)              ... done (    5.803 sec)
   IBatch 293 (of 434)              ... done (   11.351 sec)
   IBatch 294 (of 434)              ... done (    6.803 sec)
   IBatch 295 (of 434)              ... done (    5.552 sec)
   IBatch 296 (of 434)              ... done (    5.724 sec)
   IBatch 297 (of 434)              ... done (    4.258 sec)
   IBatch 298 (of 434)              ... done (    5.242 sec)
   IBatch 299 (of 434)              ... done (    3.417 sec)
   IBatch 300 (of 434)              ... done (    6.333 sec)
   IBatch 301 (of 434)              ... done (    3.677 sec)
   IBatch 302 (of 434)              ... done (    6.202 sec)
   IBatch 303 (of 434)              ... done (    5.545 sec)
   IBatch 304 (of 434)              ... done (    3.738 sec)
   IBatch 305 (of 434)              ... done (    4.159 sec)
   IBatch 306 (of 434)              ... done (    3.537 sec)
   IBatch 307 (of 434)              ... done (    5.841 sec)
   IBatch 308 (of 434)              ... done (    3.611 sec)
   IBatch 309 (of 434)              ... done (    5.407 sec)
   IBatch 310 (of 434)              ... done (    5.909 sec)
   IBatch 311 (of 434)              ... done (    2.882 sec)
   IBatch 312 (of 434)              ... done (    5.841 sec)
   IBatch 313 (of 434)              ... done (   11.537 sec)
   IBatch 314 (of 434)              ... done (    5.317 sec)
   IBatch 315 (of 434)              ... done (    5.467 sec)
   IBatch 316 (of 434)              ... done (    4.318 sec)
   IBatch 317 (of 434)              ... done (   11.734 sec)
   IBatch 318 (of 434)              ... done (    4.347 sec)
   IBatch 319 (of 434)              ... done (    6.761 sec)
   IBatch 320 (of 434)              ... done (    5.647 sec)
   IBatch 321 (of 434)              ... done (    4.123 sec)
   IBatch 322 (of 434)              ... done (    3.453 sec)
   IBatch 323 (of 434)              ... done (    6.448 sec)
   IBatch 324 (of 434)              ... done (    5.227 sec)
   IBatch 325 (of 434)              ... done (    5.266 sec)
   IBatch 326 (of 434)              ... done (    6.819 sec)
   IBatch 327 (of 434)              ... done (    5.648 sec)
   IBatch 328 (of 434)              ... done (    2.744 sec)
   IBatch 329 (of 434)              ... done (    5.758 sec)
   IBatch 330 (of 434)              ... done (    6.292 sec)
   IBatch 331 (of 434)              ... done (    6.567 sec)
   IBatch 332 (of 434)              ... done (    6.732 sec)
   IBatch 333 (of 434)              ... done (    5.002 sec)
   IBatch 334 (of 434)              ... done (    7.282 sec)
   IBatch 335 (of 434)              ... done (    4.995 sec)
   IBatch 336 (of 434)              ... done (    7.554 sec)
   IBatch 337 (of 434)              ... done (    5.109 sec)
   IBatch 338 (of 434)              ... done (    5.820 sec)
   IBatch 339 (of 434)              ... done (    5.709 sec)
   IBatch 340 (of 434)              ... done (    5.024 sec)
   IBatch 341 (of 434)              ... done (    6.470 sec)
   IBatch 342 (of 434)              ... done (    4.352 sec)
   IBatch 343 (of 434)              ... done (    5.845 sec)
   IBatch 344 (of 434)              ... done (    6.122 sec)
   IBatch 345 (of 434)              ... done (    2.510 sec)
   IBatch 346 (of 434)              ... done (    7.563 sec)
   IBatch 347 (of 434)              ... done (    6.388 sec)
   IBatch 348 (of 434)              ... done (    5.919 sec)
   IBatch 349 (of 434)              ... done (    6.243 sec)
   IBatch 350 (of 434)              ... done (    3.484 sec)
   IBatch 351 (of 434)              ... done (    5.336 sec)
   IBatch 352 (of 434)              ... done (    4.914 sec)
   IBatch 353 (of 434)              ... done (    6.605 sec)
   IBatch 354 (of 434)              ... done (    8.296 sec)
   IBatch 355 (of 434)              ... done (    7.244 sec)
   IBatch 356 (of 434)              ... done (    5.064 sec)
   IBatch 357 (of 434)              ... done (    8.758 sec)
   IBatch 358 (of 434)              ... done (    4.608 sec)
   IBatch 359 (of 434)              ... done (    4.606 sec)
   IBatch 360 (of 434)              ... done (    4.778 sec)
   IBatch 361 (of 434)              ... done (    5.688 sec)
   IBatch 362 (of 434)              ... done (    5.550 sec)
   IBatch 363 (of 434)              ... done (    6.895 sec)
   IBatch 364 (of 434)              ... done (    6.756 sec)
   IBatch 365 (of 434)              ... done (    4.472 sec)
   IBatch 366 (of 434)              ... done (    9.153 sec)
   IBatch 367 (of 434)              ... done (    8.333 sec)
   IBatch 368 (of 434)              ... done (    7.755 sec)
   IBatch 369 (of 434)              ... done (    5.865 sec)
   IBatch 370 (of 434)              ... done (    7.835 sec)
   IBatch 371 (of 434)              ... done (    3.917 sec)
   IBatch 372 (of 434)              ... done (    8.296 sec)
   IBatch 373 (of 434)              ... done (    7.718 sec)
   IBatch 374 (of 434)              ... done (    6.229 sec)
   IBatch 375 (of 434)              ... done (    7.952 sec)
   IBatch 376 (of 434)              ... done (    6.963 sec)
   IBatch 377 (of 434)              ... done (    9.227 sec)
   IBatch 378 (of 434)              ... done (    9.609 sec)
   IBatch 379 (of 434)              ... done (    8.673 sec)
   IBatch 380 (of 434)              ... done (    9.916 sec)
   IBatch 381 (of 434)              ... done (    7.069 sec)
   IBatch 382 (of 434)              ... done (    7.596 sec)
   IBatch 383 (of 434)              ... done (    9.897 sec)
   IBatch 384 (of 434)              ... done (    9.807 sec)
   IBatch 385 (of 434)              ... done (    7.282 sec)
   IBatch 386 (of 434)              ... done (    8.347 sec)
   IBatch 387 (of 434)              ... done (    8.838 sec)
   IBatch 388 (of 434)              ... done (    7.734 sec)
   IBatch 389 (of 434)              ... done (    8.052 sec)
   IBatch 390 (of 434)              ... done (    6.882 sec)
   IBatch 391 (of 434)              ... done (    7.075 sec)
   IBatch 392 (of 434)              ... done (    5.134 sec)
   IBatch 393 (of 434)              ... done (    6.917 sec)
   IBatch 394 (of 434)              ... done (    8.190 sec)
   IBatch 395 (of 434)              ... done (    8.718 sec)
   IBatch 396 (of 434)              ... done (    7.686 sec)
   IBatch 397 (of 434)              ... done (   10.036 sec)
   IBatch 398 (of 434)              ... done (    9.659 sec)
   IBatch 399 (of 434)              ... done (   11.712 sec)
   IBatch 400 (of 434)              ... done (    9.896 sec)
   IBatch 401 (of 434)              ... done (    8.897 sec)
   IBatch 402 (of 434)              ... done (    8.127 sec)
   IBatch 403 (of 434)              ... done (   10.949 sec)
   IBatch 404 (of 434)              ... done (    8.158 sec)
   IBatch 405 (of 434)              ... done (    9.166 sec)
   IBatch 406 (of 434)              ... done (    9.070 sec)
   IBatch 407 (of 434)              ... done (   10.210 sec)
   IBatch 408 (of 434)              ... done (    9.891 sec)
   IBatch 409 (of 434)              ... done (    9.634 sec)
   IBatch 410 (of 434)              ... done (   11.157 sec)
   IBatch 411 (of 434)              ... done (    7.631 sec)
   IBatch 412 (of 434)              ... done (    8.233 sec)
   IBatch 413 (of 434)              ... done (    9.105 sec)
   IBatch 414 (of 434)              ... done (    8.811 sec)
   IBatch 415 (of 434)              ... done (   10.105 sec)
   IBatch 416 (of 434)              ... done (   10.614 sec)
   IBatch 417 (of 434)              ... done (   11.143 sec)
   IBatch 418 (of 434)              ... done (    9.607 sec)
   IBatch 419 (of 434)              ... done (    8.130 sec)
   IBatch 420 (of 434)              ... done (    8.698 sec)
   IBatch 421 (of 434)              ... done (   11.425 sec)
   IBatch 422 (of 434)              ... done (    9.547 sec)
   IBatch 423 (of 434)              ... done (   10.700 sec)
   IBatch 424 (of 434)              ... done (   11.652 sec)
   IBatch 425 (of 434)              ... done (    7.259 sec)
   IBatch 426 (of 434)              ... done (    9.200 sec)
   IBatch 427 (of 434)              ... done (   10.414 sec)
   IBatch 428 (of 434)              ... done (   12.157 sec)
   IBatch 429 (of 434)              ... done (   13.689 sec)
   IBatch 430 (of 434)              ... done (   12.329 sec)
   IBatch 431 (of 434)              ... done (   12.152 sec)
   IBatch 432 (of 434)              ... done (   14.751 sec)
   IBatch 433 (of 434)              ... done (   19.337 sec)
   IBatch 434 (of 434)              ... done (   13.669 sec)
Total EXT                           ...        3619.108 sec

IAVPA Available = YES
VABPAO Available= YES
IJV Available   = YES
IJK Available   = NO
PNO3i Available = YES
PNO3j Available = YES
PNO4 Available  = YES
---------------------
RI-PNO TRANSFORMATION
---------------------

Total Number of PNOs                   ... 20085
Average number of PNOs per pair        ...    29
Maximal number of PNOs per pair        ...    80
   #pairs with  1 -  5 PNOs   :    0
   #pairs with  6 - 10 PNOs   :   36
   #pairs with 11 - 15 PNOs   :   87
   #pairs with 16 - 20 PNOs   :  107
   #pairs with 21 - 25 PNOs   :   82
   #pairs with 26 - 30 PNOs   :   67
   #pairs with 31 - 35 PNOs   :   91
   #pairs with 36 - 40 PNOs   :   59
   #pairs with 41 - 45 PNOs   :   64
   #pairs with 46 - 50 PNOs   :   37
   #pairs with 51 - 55 PNOs   :   16
   #pairs with 56 - 60 PNOs   :   11
   #pairs with 61 - 65 PNOs   :    8
   #pairs with 66 - 70 PNOs   :    5
   #pairs with 71 - 75 PNOs   :    9
   #pairs with 76 - 80 PNOs   :    2

Generation of (ij|ab)[P] integrals            ... on
Generation of (ia|bc)[P],(ja|bc)[P] integrals ... on
Storage of 3 and 4 external integrals         ... on
Generation of ALL (ka|bc)[P] integrals        ... on
Keep RI integrals in memory                   ... off

Ibatch:  1 (of 68)
Starting 2-4 index PNO integral generation ... done

Ibatch:  2 (of 68)
Starting 2-4 index PNO integral generation ... done

Ibatch:  3 (of 68)
Starting 2-4 index PNO integral generation ... done

Ibatch:  4 (of 68)
Starting 2-4 index PNO integral generation ... done

Ibatch:  5 (of 68)
Starting 2-4 index PNO integral generation ... done

Ibatch:  6 (of 68)
Starting 2-4 index PNO integral generation ... done

Ibatch:  7 (of 68)
Starting 2-4 index PNO integral generation ... done

Ibatch:  8 (of 68)
Starting 2-4 index PNO integral generation ... done

Ibatch:  9 (of 68)
Starting 2-4 index PNO integral generation ... done

Ibatch: 10 (of 68)
Starting 2-4 index PNO integral generation ... done

Ibatch: 11 (of 68)
Starting 2-4 index PNO integral generation ... done

Ibatch: 12 (of 68)
Starting 2-4 index PNO integral generation ... done

Ibatch: 13 (of 68)
Starting 2-4 index PNO integral generation ... done

Ibatch: 14 (of 68)
Starting 2-4 index PNO integral generation ... done

Ibatch: 15 (of 68)
Starting 2-4 index PNO integral generation ... done

Ibatch: 16 (of 68)
Starting 2-4 index PNO integral generation ... done

Ibatch: 17 (of 68)
Starting 2-4 index PNO integral generation ... done

Ibatch: 18 (of 68)
Starting 2-4 index PNO integral generation ... done

Ibatch: 19 (of 68)
Starting 2-4 index PNO integral generation ... done

Ibatch: 20 (of 68)
Starting 2-4 index PNO integral generation ... done

Ibatch: 21 (of 68)
Starting 2-4 index PNO integral generation ... done

Ibatch: 22 (of 68)
Starting 2-4 index PNO integral generation ... done

Ibatch: 23 (of 68)
Starting 2-4 index PNO integral generation ... done

Ibatch: 24 (of 68)
Starting 2-4 index PNO integral generation ... done

Ibatch: 25 (of 68)
Starting 2-4 index PNO integral generation ... done

Ibatch: 26 (of 68)
Starting 2-4 index PNO integral generation ... done

Ibatch: 27 (of 68)
Starting 2-4 index PNO integral generation ... done

Ibatch: 28 (of 68)
Starting 2-4 index PNO integral generation ... done

Ibatch: 29 (of 68)
Starting 2-4 index PNO integral generation ... done

Ibatch: 30 (of 68)
Starting 2-4 index PNO integral generation ... done

Ibatch: 31 (of 68)
Starting 2-4 index PNO integral generation ... done

Ibatch: 32 (of 68)
Starting 2-4 index PNO integral generation ... done

Ibatch: 33 (of 68)
Starting 2-4 index PNO integral generation ... done

Ibatch: 34 (of 68)
Starting 2-4 index PNO integral generation ... done

Ibatch: 35 (of 68)
Starting 2-4 index PNO integral generation ... done

Ibatch: 36 (of 68)
Starting 2-4 index PNO integral generation ... done

Ibatch: 37 (of 68)
Starting 2-4 index PNO integral generation ... done

Ibatch: 38 (of 68)
Starting 2-4 index PNO integral generation ... done

Ibatch: 39 (of 68)
Starting 2-4 index PNO integral generation ... done

Ibatch: 40 (of 68)
Starting 2-4 index PNO integral generation ... done

Ibatch: 41 (of 68)
Starting 2-4 index PNO integral generation ... done

Ibatch: 42 (of 68)
Starting 2-4 index PNO integral generation ... done

Ibatch: 43 (of 68)
Starting 2-4 index PNO integral generation ... done

Ibatch: 44 (of 68)
Starting 2-4 index PNO integral generation ... done

Ibatch: 45 (of 68)
Starting 2-4 index PNO integral generation ... done

Ibatch: 46 (of 68)
Starting 2-4 index PNO integral generation ... done

Ibatch: 47 (of 68)
Starting 2-4 index PNO integral generation ... done

Ibatch: 48 (of 68)
Starting 2-4 index PNO integral generation ... done

Ibatch: 49 (of 68)
Starting 2-4 index PNO integral generation ... done

Ibatch: 50 (of 68)
Starting 2-4 index PNO integral generation ... done

Ibatch: 51 (of 68)
Starting 2-4 index PNO integral generation ... done

Ibatch: 52 (of 68)
Starting 2-4 index PNO integral generation ... done

Ibatch: 53 (of 68)
Starting 2-4 index PNO integral generation ... done

Ibatch: 54 (of 68)
Starting 2-4 index PNO integral generation ... done

Ibatch: 55 (of 68)
Starting 2-4 index PNO integral generation ... done

Ibatch: 56 (of 68)
Starting 2-4 index PNO integral generation ... done

Ibatch: 57 (of 68)
Starting 2-4 index PNO integral generation ... done

Ibatch: 58 (of 68)
Starting 2-4 index PNO integral generation ... done

Ibatch: 59 (of 68)
Starting 2-4 index PNO integral generation ... done

Ibatch: 60 (of 68)
Starting 2-4 index PNO integral generation ... done

Ibatch: 61 (of 68)
Starting 2-4 index PNO integral generation ... done

Ibatch: 62 (of 68)
Starting 2-4 index PNO integral generation ... done

Ibatch: 63 (of 68)
Starting 2-4 index PNO integral generation ... done

Ibatch: 64 (of 68)
Starting 2-4 index PNO integral generation ... done

Ibatch: 65 (of 68)
Starting 2-4 index PNO integral generation ... done

Ibatch: 66 (of 68)
Starting 2-4 index PNO integral generation ... done

Ibatch: 67 (of 68)
Starting 2-4 index PNO integral generation ... done

Ibatch: 68 (of 68)
Starting 2-4 index PNO integral generation ... done

Timings:
Total PNO integral transformation time     ...       1021.026 sec
Size of the 3-external file                ...       246 MB
Size of the 4-external file                ...      1523 MB
Size of the IKJL file                      ...         6 MB
Size of the all 3-external file            ...      6995 MB
Size of the 1-external file                ...        26 MB

Making pair/pair overlap matrices          ... done (  210.034 sec)
Size of the pair overlap file              ... 2048 MB
Redoing the guess amplitudes               ... done (    0.011 sec)

-------------------------
FINAL STARTUP INFORMATION
-------------------------

E(0)                                       ...  -1429.627585594
E(SL-MP2)                                  ...     -4.098366529
E(SL-MP2) including corrections            ...     -4.100805741
Initial E(tot)                             ...  -1433.728391335
<T|T>                                      ...      1.101420614
Number of pairs included                   ... 681
Total number of pairs                      ... 2211

------------------------------------------------
                  RHF COUPLED CLUSTER ITERATIONS
------------------------------------------------

Number of PNO amplitudes to be optimized   ...       734445
Number of non-PNO amplitudes               ...    309361956
Untruncated number of regular amplitudes   ...   1004404236

Iter       E(tot)           E(Corr)          Delta-E          Residual     Time
  0 Error (ORCA_MDCI): not enough memory to treat a single 4ext-batch
[file orca_mdci/mdci_dlpno_rhf_cc.cpp, line 4426]:                    MemNeeded (   11.1 MB) > MemAvailable (    5.7 MB)


ORCA finished by error termination in MDCI
Calling Command: C:\ORCA_6.0.0\orca_mdci smallComplexOptimized_Fragmented.mdciinp.tmp 
[file orca_tools/qcmsg.cpp, line 394]: 
  .... aborting the run

